TITLE= "concentration"
VARIABLES= "X", "Y", "Z", "H2NTA-1", "NTA-3", "CoNTA-1", "Co(NTA)2-4", "CoOHNTA-2", "CoOH+1", "Co(OH)2(aq)", "Co(OH)3-1", "HCO3-1", "CO3-2"
ZONE T="Rectangular zone"
 I=34, J=34, K=18, F=POINT
DT=(SINGLE SINGLE SINGLE SINGLE SINGLE SINGLE SINGLE SINGLE SINGLE SINGLE SINGLE SINGLE SINGLE)
0 0 0 7.57941e-29 2.93837e-30 1.47136e-43 0 0 1.17096e-29 6.49799e-37 1.43554e-39 9.21359e-08 3.79022e-12 
5 0 0 5.68456e-29 2.20378e-30 1.10703e-43 0 0 8.78222e-30 4.87349e-37 1.07665e-39 6.9102e-08 2.84267e-12 
15 0 0 5.68455e-29 2.20378e-30 1.10703e-43 0 0 8.78223e-30 4.8735e-37 1.07666e-39 6.9102e-08 2.84267e-12 
25 0 0 5.6846e-29 2.2038e-30 1.10703e-43 0 0 8.7823e-30 4.87353e-37 1.07666e-39 6.9102e-08 2.84267e-12 
35 0 0 5.68465e-29 2.20382e-30 1.10703e-43 0 0 8.78238e-30 4.87358e-37 1.07667e-39 6.9102e-08 2.84267e-12 
45 0 0 5.68466e-29 2.20382e-30 1.10703e-43 0 0 8.7824e-30 4.87359e-37 1.07668e-39 6.9102e-08 2.84267e-12 
55 0 0 5.68463e-29 2.20381e-30 1.10703e-43 0 0 8.78235e-30 4.87356e-37 1.07667e-39 6.9102e-08 2.84267e-12 
65 0 0 5.68459e-29 2.20379e-30 1.10703e-43 0 0 8.78227e-30 4.87352e-37 1.07666e-39 6.9102e-08 2.84267e-12 
75 0 0 5.68459e-29 2.20379e-30 1.10703e-43 0 0 8.7823e-30 4.87354e-37 1.07666e-39 6.9102e-08 2.84267e-12 
85 0 0 5.68463e-29 2.20381e-30 1.10703e-43 0 0 8.78234e-30 4.87356e-37 1.07667e-39 6.9102e-08 2.84267e-12 
95 0 0 5.68465e-29 2.20382e-30 1.10703e-43 0 0 8.78238e-30 4.87358e-37 1.07667e-39 6.9102e-08 2.84267e-12 
105 0 0 5.68465e-29 2.20381e-30 1.10703e-43 0 0 8.78237e-30 4.87357e-37 1.07667e-39 6.91019e-08 2.84267e-12 
115 0 0 5.68463e-29 2.20381e-30 1.10703e-43 0 0 8.78235e-30 4.87356e-37 1.07667e-39 6.9102e-08 2.84267e-12 
125 0 0 5.68455e-29 2.20378e-30 1.10703e-43 0 0 8.78224e-30 4.8735e-37 1.07666e-39 6.9102e-08 2.84267e-12 
135 0 0 5.68438e-29 2.20371e-30 1.10703e-43 0 0 8.78223e-30 4.8735e-37 1.07665e-39 6.9102e-08 2.84267e-12 
145 0 0 5.68443e-29 2.20373e-30 1.10703e-43 0 0 8.78225e-30 4.87351e-37 1.07666e-39 6.9102e-08 2.84267e-12 
155 0 0 5.68452e-29 2.20377e-30 1.10703e-43 0 0 8.78231e-30 4.87354e-37 1.07667e-39 6.9102e-08 2.84267e-12 
165 0 0 1.1384e-28 4.41334e-30 2.21405e-43 0 0 1.75877e-29 9.75992e-37 2.15617e-39 1.38204e-07 5.68536e-12 
175 0 0 1.13838e-28 4.41328e-30 1.1e-30 1.1e-30 1.1e-30 1.75877e-29 1.1e-30 1.1e-30 1.38204e-07 5.68537e-12 
185 0 0 8.55511e-26 3.25201e-27 1.1e-30 1.1e-30 1.1e-30 1.75871e-29 1.1e-30 1.1e-30 1.38204e-07 5.68539e-12 
195 0 0 2.60511e-23 1.01489e-24 1.10001e-30 1.1e-30 1.1e-30 1.75855e-29 1.1e-30 1.1e-30 1.38204e-07 5.68541e-12 
205 0 0 1.92045e-21 7.5297e-23 1.10004e-30 1.1e-30 1.1e-30 1.75832e-29 1.1e-30 1.1e-30 1.38203e-07 5.68543e-12 
215 0 0 9.62714e-20 3.78761e-21 1.10027e-30 1.1e-30 1.1e-30 1.75676e-29 1.1e-30 1.1e-30 1.38203e-07 5.68548e-12 
225 0 0 3.09264e-18 1.2114e-19 1.10141e-30 1.1e-30 1.1e-30 1.73878e-29 1.1e-30 1.1e-30 1.38195e-07 5.68599e-12 
235 0 0 3.24244e-17 1.26794e-18 1.1056e-30 1.1e-30 1.1e-30 1.62663e-29 1.1e-30 1.1e-30 1.38147e-07 5.68894e-12 
245 0 0 1.43148e-16 5.65382e-18 1.12086e-30 1.1e-30 1.1e-30 1.32521e-29 1.1e-30 1.1e-30 1.38004e-07 5.69794e-12 
255 0 0 4.84342e-16 1.95454e-17 1.24767e-30 1.1e-30 1.1e-30 1.02596e-29 1.1e-30 1.1e-30 1.37654e-07 5.72052e-12 
265 0 0 1.43705e-15 5.84911e-17 1.7612e-30 1.1e-30 1.1e-30 8.7412e-30 1.1e-30 1.1e-30 1.37123e-07 5.75692e-12 
275 0 0 3.06446e-15 1.24527e-16 2.71786e-30 1.1e-30 1.1e-30 7.65511e-30 1.1e-30 1.1e-30 1.36989e-07 5.76662e-12 
285 0 0 3.6439e-15 1.47502e-16 3.04263e-30 1.1e-30 1.1e-30 7.18888e-30 1.1e-30 1.1e-30 1.37053e-07 5.76199e-12 
295 0 0 3.28652e-15 1.33003e-16 2.77587e-30 1.1e-30 1.1e-30 7.02593e-30 1.1e-30 1.1e-30 1.37139e-07 5.75445e-12 
305 0 0 2.13626e-15 8.6396e-17 2.0667e-30 1.1e-30 1.1e-30 6.8083e-30 1.1e-30 1.1e-30 1.37182e-07 5.75012e-12 
315 0 0 1.04639e-15 4.18784e-17 1.60714e-30 1.1e-30 1.1e-30 6.46871e-30 1.1e-30 1.1e-30 1.3754e-07 5.72648e-12 
320 0 0 1.04639e-15 4.18784e-17 1.60714e-30 1.1e-30 1.1e-30 6.46871e-30 1.1e-30 1.1e-30 1.3754e-07 5.72648e-12 
0 5 0 1.13691e-28 4.40756e-30 2.21405e-43 0 0 1.75644e-29 9.74698e-37 2.15331e-39 1.38204e-07 5.68533e-12 
5 5 0 1.13691e-28 4.40756e-30 2.21405e-43 0 0 1.75644e-29 9.74698e-37 2.15331e-39 1.38204e-07 5.68533e-12 
15 5 0 1.13691e-28 4.40756e-30 2.21405e-43 0 0 1.75645e-29 9.74699e-37 2.15331e-39 1.38204e-07 5.68534e-12 
25 5 0 1.13692e-28 4.4076e-30 2.21405e-43 0 0 1.75646e-29 9.74707e-37 2.15333e-39 1.38204e-07 5.68534e-12 
35 5 0 1.13693e-28 4.40763e-30 2.21405e-43 0 0 1.75648e-29 9.74716e-37 2.15335e-39 1.38204e-07 5.68534e-12 
45 5 0 1.13693e-28 4.40764e-30 2.21405e-43 0 0 1.75648e-29 9.74718e-37 2.15335e-39 1.38204e-07 5.68534e-12 
55 5 0 1.13693e-28 4.40762e-30 2.21405e-43 0 0 1.75647e-29 9.74713e-37 2.15334e-39 1.38204e-07 5.68534e-12 
65 5 0 1.13692e-28 4.40758e-30 2.21405e-43 0 0 1.75645e-29 9.74704e-37 2.15332e-39 1.38204e-07 5.68534e-12 
75 5 0 1.13692e-28 4.40759e-30 2.21405e-43 0 0 1.75646e-29 9.74707e-37 2.15333e-39 1.38204e-07 5.68534e-12 
85 5 0 1.13693e-28 4.40762e-30 2.21405e-43 0 0 1.75647e-29 9.74712e-37 2.15334e-39 1.38204e-07 5.68534e-12 
95 5 0 1.13693e-28 4.40763e-30 2.21405e-43 0 0 1.75648e-29 9.74716e-37 2.15335e-39 1.38204e-07 5.68534e-12 
105 5 0 1.13693e-28 4.40763e-30 2.21405e-43 0 0 1.75647e-29 9.74715e-37 2.15334e-39 1.38204e-07 5.68534e-12 
115 5 0 1.13693e-28 4.40762e-30 2.21405e-43 0 0 1.75647e-29 9.74713e-37 2.15334e-39 1.38204e-07 5.68534e-12 
125 5 0 1.13691e-28 4.40755e-30 2.21405e-43 0 0 1.75645e-29 9.747e-37 2.15331e-39 1.38204e-07 5.68534e-12 
135 5 0 1.13688e-28 4.40743e-30 2.21405e-43 0 0 1.75645e-29 9.74699e-37 2.15331e-39 1.38204e-07 5.68534e-12 
145 5 0 1.13689e-28 4.40746e-30 2.21405e-43 0 0 1.75645e-29 9.74702e-37 2.15332e-39 1.38204e-07 5.68534e-12 
155 5 0 1.1369e-28 4.40753e-30 2.21405e-43 0 0 1.75646e-29 9.74708e-37 2.15333e-39 1.38204e-07 5.68534e-12 
165 5 0 1.1384e-28 4.41334e-30 2.21405e-43 0 0 1.75877e-29 9.75992e-37 2.15617e-39 1.38204e-07 5.68536e-12 
175 5 0 1.13838e-28 4.41328e-30 1.1e-30 1.1e-30 1.1e-30 1.75877e-29 1.1e-30 1.1e-30 1.38204e-07 5.68537e-12 
185 5 0 8.55511e-26 3.25201e-27 1.1e-30 1.1e-30 1.1e-30 1.75871e-29 1.1e-30 1.1e-30 1.38204e-07 5.68539e-12 
195 5 0 2.60511e-23 1.01489e-24 1.10001e-30 1.1e-30 1.1e-30 1.75855e-29 1.1e-30 1.1e-30 1.38204e-07 5.68541e-12 
205 5 0 1.92045e-21 7.5297e-23 1.10004e-30 1.1e-30 1.1e-30 1.75832e-29 1.1e-30 1.1e-30 1.38203e-07 5.68543e-12 
215 5 0 9.62714e-20 3.78761e-21 1.10027e-30 1.1e-30 1.1e-30 1.75676e-29 1.1e-30 1.1e-30 1.38203e-07 5.68548e-12 
225 5 0 3.09264e-18 1.2114e-19 1.10141e-30 1.1e-30 1.1e-30 1.73878e-29 1.1e-30 1.1e-30 1.38195e-07 5.68599e-12 
235 5 0 3.24244e-17 1.26794e-18 1.1056e-30 1.1e-30 1.1e-30 1.62663e-29 1.1e-30 1.1e-30 1.38147e-07 5.68894e-12 
245 5 0 1.43148e-16 5.65382e-18 1.12086e-30 1.1e-30 1.1e-30 1.32521e-29 1.1e-30 1.1e-30 1.38004e-07 5.69794e-12 
255 5 0 4.84342e-16 1.95454e-17 1.24767e-30 1.1e-30 1.1e-30 1.02596e-29 1.1e-30 1.1e-30 1.37654e-07 5.72052e-12 
265 5 0 1.43705e-15 5.84911e-17 1.7612e-30 1.1e-30 1.1e-30 8.7412e-30 1.1e-30 1.1e-30 1.37123e-07 5.75692e-12 
275 5 0 3.06446e-15 1.24527e-16 2.71786e-30 1.1e-30 1.1e-30 7.65511e-30 1.1e-30 1.1e-30 1.36989e-07 5.76662e-12 
285 5 0 3.6439e-15 1.47502e-16 3.04263e-30 1.1e-30 1.1e-30 7.18888e-30 1.1e-30 1.1e-30 1.37053e-07 5.76199e-12 
295 5 0 3.28652e-15 1.33003e-16 2.77587e-30 1.1e-30 1.1e-30 7.02593e-30 1.1e-30 1.1e-30 1.37139e-07 5.75445e-12 
305 5 0 2.13626e-15 8.6396e-17 2.0667e-30 1.1e-30 1.1e-30 6.8083e-30 1.1e-30 1.1e-30 1.37182e-07 5.75012e-12 
315 5 0 1.04639e-15 4.18784e-17 1.60714e-30 1.1e-30 1.1e-30 6.46871e-30 1.1e-30 1.1e-30 1.3754e-07 5.72648e-12 
320 5 0 1.04639e-15 4.18784e-17 1.60714e-30 1.1e-30 1.1e-30 6.46871e-30 1.1e-30 1.1e-30 1.3754e-07 5.72648e-12 
0 15 0 1.13691e-28 4.40756e-30 1.1e-30 1.1e-30 1.1e-30 1.75644e-29 1.1e-30 1.1e-30 1.38204e-07 5.68534e-12 
5 15 0 1.13691e-28 4.40756e-30 1.1e-30 1.1e-30 1.1e-30 1.75644e-29 1.1e-30 1.1e-30 1.38204e-07 5.68534e-12 
15 15 0 1.13691e-28 4.40756e-30 1.1e-30 1.1e-30 1.1e-30 1.75645e-29 1.1e-30 1.1e-30 1.38204e-07 5.68534e-12 
25 15 0 1.13692e-28 4.4076e-30 1.1e-30 1.1e-30 1.1e-30 1.75646e-29 1.1e-30 1.1e-30 1.38204e-07 5.68534e-12 
35 15 0 1.13693e-28 4.40764e-30 1.1e-30 1.1e-30 1.1e-30 1.75648e-29 1.1e-30 1.1e-30 1.38204e-07 5.68534e-12 
45 15 0 1.13693e-28 4.40765e-30 1.1e-30 1.1e-30 1.1e-30 1.75648e-29 1.1e-30 1.1e-30 1.38204e-07 5.68534e-12 
55 15 0 1.13693e-28 4.40763e-30 1.1e-30 1.1e-30 1.1e-30 1.75647e-29 1.1e-30 1.1e-30 1.38204e-07 5.68534e-12 
65 15 0 1.13692e-28 4.40759e-30 1.1e-30 1.1e-30 1.1e-30 1.75646e-29 1.1e-30 1.1e-30 1.38204e-07 5.68534e-12 
75 15 0 1.13692e-28 4.40759e-30 1.1e-30 1.1e-30 1.1e-30 1.75646e-29 1.1e-30 1.1e-30 1.38204e-07 5.68534e-12 
85 15 0 1.13693e-28 4.40762e-30 1.1e-30 1.1e-30 1.1e-30 1.75647e-29 1.1e-30 1.1e-30 1.38204e-07 5.68534e-12 
95 15 0 1.13693e-28 4.40764e-30 1.1e-30 1.1e-30 1.1e-30 1.75647e-29 1.1e-30 1.1e-30 1.38204e-07 5.68534e-12 
105 15 0 1.13693e-28 4.40764e-30 1.1e-30 1.1e-30 1.1e-30 1.75647e-29 1.1e-30 1.1e-30 1.38204e-07 5.68534e-12 
115 15 0 1.13693e-28 4.40763e-30 1.1e-30 1.1e-30 1.1e-30 1.75647e-29 1.1e-30 1.1e-30 1.38204e-07 5.68534e-12 
125 15 0 1.13883e-28 4.41502e-30 1.1e-30 1.1e-30 1.1e-30 1.75646e-29 1.1e-30 1.1e-30 1.38204e-07 5.68534e-12 
135 15 0 1.17185e-28 4.54259e-30 1.1e-30 1.1e-30 1.1e-30 1.75645e-29 1.1e-30 1.1e-30 1.38204e-07 5.68534e-12 
145 15 0 1.16048e-28 4.49865e-30 1.1e-30 1.1e-30 1.1e-30 1.75645e-29 1.1e-30 1.1e-30 1.38204e-07 5.68534e-12 
155 15 0 1.1514e-28 4.46353e-30 1.1e-30 1.1e-30 1.1e-30 1.75645e-29 1.1e-30 1.1e-30 1.38204e-07 5.68534e-12 
165 15 0 1.14706e-28 4.44678e-30 1.1e-30 1.1e-30 1.1e-30 1.75693e-29 1.1e-30 1.1e-30 1.38204e-07 5.68534e-12 
175 15 0 1.14785e-28 4.44981e-30 1.1e-30 1.1e-30 1.1e-30 1.75747e-29 1.1e-30 1.1e-30 1.38204e-07 5.68535e-12 
185 15 0 3.67156e-26 1.39535e-27 1.1e-30 1.1e-30 1.1e-30 1.75762e-29 1.1e-30 1.1e-30 1.38204e-07 5.68537e-12 
195 15 0 7.80241e-24 3.03868e-25 1.1e-30 1.1e-30 1.1e-30 1.7576e-29 1.1e-30 1.1e-30 1.38204e-07 5.68539e-12 
205 15 0 5.65295e-22 2.21602e-23 1.10001e-30 1.1e-30 1.1e-30 1.75757e-29 1.1e-30 1.1e-30 1.38204e-07 5.68542e-12 
215 15 0 3.55485e-20 1.39843e-21 1.10008e-30 1.1e-30 1.1e-30 1.75703e-29 1.1e-30 1.1e-30 1.38203e-07 5.68544e-12 
225 15 0 1.35299e-18 5.29953e-20 1.10047e-30 1.1e-30 1.1e-30 1.7479e-29 1.1e-30 1.1e-30 1.38199e-07 5.6857e-12 
235 15 0 1.891e-17 7.39446e-19 1.10229e-30 1.1e-30 1.1e-30 1.67721e-29 1.1e-30 1.1e-30 1.38169e-07 5.68756e-12 
245 15 0 1.12227e-16 4.4404e-18 1.11168e-30 1.1e-30 1.1e-30 1.43514e-29 1.1e-30 1.1e-30 1.38047e-07 5.69515e-12 
255 15 0 4.75596e-16 1.92348e-17 1.21214e-30 1.1e-30 1.1e-30 1.07426e-29 1.1e-30 1.1e-30 1.37674e-07 5.71915e-12 
265 15 0 1.50937e-15 6.15291e-17 1.65146e-30 1.1e-30 1.1e-30 8.50734e-30 1.1e-30 1.1e-30 1.371e-07 5.75822e-12 
275 15 0 3.08867e-15 1.25497e-16 2.4536e-30 1.1e-30 1.1e-30 7.44944e-30 1.1e-30 1.1e-30 1.37009e-07 5.76501e-12 
285 15 0 3.52729e-15 1.42767e-16 2.71994e-30 1.1e-30 1.1e-30 7.1925e-30 1.1e-30 1.1e-30 1.37092e-07 5.75915e-12 
295 15 0 3.17192e-15 1.28311e-16 2.51809e-30 1.1e-30 1.1e-30 7.10475e-30 1.1e-30 1.1e-30 1.37175e-07 5.75195e-12 
305 15 0 2.08409e-15 8.42813e-17 1.94439e-30 1.1e-30 1.1e-30 6.87001e-30 1.1e-30 1.1e-30 1.37198e-07 5.74921e-12 
315 15 0 1.06138e-15 4.24836e-17 1.60393e-30 1.1e-30 1.1e-30 6.47449e-30 1.1e-30 1.1e-30 1.37536e-07 5.72668e-12 
320 15 0 1.06138e-15 4.24836e-17 1.60393e-30 1.1e-30 1.1e-30 6.47449e-30 1.1e-30 1.1e-30 1.37536e-07 5.72668e-12 
0 25 0 1.13691e-28 4.40756e-30 1.1e-30 1.1e-30 1.1e-30 1.75644e-29 1.1e-30 1.1e-30 1.38204e-07 5.68534e-12 
5 25 0 1.13691e-28 4.40756e-30 1.1e-30 1.1e-30 1.1e-30 1.75644e-29 1.1e-30 1.1e-30 1.38204e-07 5.68534e-12 
15 25 0 1.13691e-28 4.40757e-30 1.1e-30 1.1e-30 1.1e-30 1.75645e-29 1.1e-30 1.1e-30 1.38204e-07 5.68534e-12 
25 25 0 1.13695e-28 4.40772e-30 1.1e-30 1.1e-30 1.1e-30 1.75646e-29 1.1e-30 1.1e-30 1.38204e-07 5.68534e-12 
35 25 0 1.14707e-28 4.44628e-30 1.1e-30 1.1e-30 1.1e-30 1.75648e-29 1.1e-30 1.1e-30 1.38204e-07 5.68534e-12 
45 25 0 1.13952e-28 4.41752e-30 1.1e-30 1.1e-30 1.1e-30 1.75648e-29 1.1e-30 1.1e-30 1.38204e-07 5.68534e-12 
55 25 0 1.62867e-28 6.23425e-30 1.1e-30 1.1e-30 1.1e-30 1.75647e-29 1.1e-30 1.1e-30 1.38204e-07 5.68534e-12 
65 25 0 1.23252e-28 4.76271e-30 1.1e-30 1.1e-30 1.1e-30 1.75646e-29 1.1e-30 1.1e-30 1.38204e-07 5.68534e-12 
75 25 0 1.14782e-28 4.44808e-30 1.1e-30 1.1e-30 1.1e-30 1.75646e-29 1.1e-30 1.1e-30 1.38204e-07 5.68534e-12 
85 25 0 1.13888e-28 4.41489e-30 1.1e-30 1.1e-30 1.1e-30 1.75647e-29 1.1e-30 1.1e-30 1.38204e-07 5.68534e-12 
95 25 0 1.13737e-28 4.40927e-30 1.1e-30 1.1e-30 1.1e-30 1.75647e-29 1.1e-30 1.1e-30 1.38204e-07 5.68534e-12 
105 25 0 1.13774e-28 4.41068e-30 1.1e-30 1.1e-30 1.1e-30 1.75647e-29 1.1e-30 1.1e-30 1.38204e-07 5.68535e-12 
115 25 0 1.13963e-28 4.41791e-30 1.1e-30 1.1e-30 1.1e-30 1.75647e-29 1.1e-30 1.1e-30 1.38204e-07 5.68533e-12 
125 25 0 1.1399e-28 4.41909e-30 1.1e-30 1.1e-30 1.1e-30 1.75646e-29 1.1e-30 1.1e-30 1.38204e-07 5.68534e-12 
135 25 0 1.29543e-28 5.01977e-30 1.35544e-30 1.1e-30 1.10002e-30 1.35323e-27 1.10035e-30 1.1e-30 1.38204e-07 5.68534e-12 
145 25 0 1.26354e-28 4.89664e-30 1.32527e-30 1.1e-30 1.10002e-30 7.85427e-28 1.10025e-30 1.1e-30 1.38204e-07 5.68535e-12 
155 25 0 1.22155e-28 4.73445e-30 1.28102e-30 1.1e-30 1.10001e-30 3.32098e-28 1.10014e-30 1.1e-30 1.38204e-07 5.68534e-12 
165 25 0 1.19413e-28 4.6285e-30 1.25569e-30 1.1e-30 1.10001e-30 1.45948e-28 1.10007e-30 1.1e-30 1.38204e-07 5.68534e-12 
175 25 0 2.8266e-28 1.10087e-29 2.73441e-30 1.1e-30 1.10007e-30 5.16717e-28 1.10023e-30 1.1e-30 1.38204e-07 5.68534e-12 
185 25 0 4.21936e-27 1.61246e-28 5.01638e-30 1.1e-30 1.10016e-30 9.4417e-28 1.10042e-30 1.1e-30 1.38204e-07 5.68535e-12 
195 25 0 7.2504e-25 2.82333e-26 7.18268e-30 1.1e-30 1.10024e-30 1.13804e-27 1.10051e-30 1.1e-30 1.38204e-07 5.68536e-12 
205 25 0 6.011e-23 2.35606e-24 8.39274e-30 1.1e-30 1.10025e-30 9.52654e-28 1.10043e-30 1.1e-30 1.38204e-07 5.68538e-12 
215 25 0 4.8019e-21 1.88884e-22 1.07845e-29 1.1e-30 1.10027e-30 6.55378e-28 1.10029e-30 1.1e-30 1.38204e-07 5.6854e-12 
225 25 0 2.41813e-19 9.47202e-21 1.97836e-29 1.1e-30 1.10037e-30 3.98144e-28 1.10017e-30 1.1e-30 1.38203e-07 5.68547e-12 
235 25 0 5.81037e-18 2.27201e-19 5.56537e-29 1.1e-30 1.10071e-30 1.76534e-28 1.10007e-30 1.1e-30 1.38192e-07 5.68613e-12 
245 25 0 7.08732e-17 2.81388e-18 3.20601e-23 1.10193e-30 1.79169e-28 1.70171e-24 1.19447e-30 1.10021e-30 1.38108e-07 5.69133e-12 
255 25 0 4.22608e-16 1.71127e-17 1.39369e-21 1.18585e-30 7.74218e-27 5.23822e-23 4.00744e-30 1.10642e-30 1.37763e-07 5.7134e-12 
265 25 0 1.43051e-15 5.83153e-17 8.94586e-21 1.6553e-30 4.96902e-26 3.11121e-22 1.83716e-29 1.13815e-30 1.37191e-07 5.75193e-12 
275 25 0 2.84156e-15 1.15423e-16 1.67541e-20 2.14508e-30 9.3061e-26 6.97569e-22 3.98411e-29 1.18558e-30 1.37102e-07 5.75826e-12 
285 25 0 3.24451e-15 1.31315e-16 1.58153e-20 2.09793e-30 8.78461e-26 7.23279e-22 4.12734e-29 1.18875e-30 1.3717e-07 5.75347e-12 
295 25 0 2.94331e-15 1.19044e-16 9.68231e-21 1.69479e-30 5.37779e-26 4.74946e-22 2.74847e-29 1.15829e-30 1.37231e-07 5.74825e-12 
305 25 0 1.99094e-15 8.05141e-17 1.95705e-21 1.21687e-30 1.08701e-26 1.21668e-22 7.86167e-30 1.11493e-30 1.37233e-07 5.74729e-12 
315 25 0 1.09703e-15 4.3924e-17 1.39564e-22 1.10818e-30 7.76171e-28 9.71835e-24 1.6401e-30 1.10119e-30 1.37528e-07 5.7273e-12 
320 25 0 1.09703e-15 4.3924e-17 1.39564e-22 1.10818e-30 7.76171e-28 9.71835e-24 1.6401e-30 1.10119e-30 1.37528e-07 5.7273e-12 
0 35 0 1.13691e-28 4.40756e-30 1.1e-30 1.1e-30 1.1e-30 1.75644e-29 1.1e-30 1.1e-30 1.38204e-07 5.68534e-12 
5 35 0 1.13691e-28 4.40756e-30 1.1e-30 1.1e-30 1.1e-30 1.75644e-29 1.1e-30 1.1e-30 1.38204e-07 5.68534e-12 
15 35 0 1.13692e-28 4.40758e-30 1.1e-30 1.1e-30 1.1e-30 1.75644e-29 1.1e-30 1.1e-30 1.38204e-07 5.68535e-12 
25 35 0 1.13701e-28 4.40795e-30 1.1e-30 1.1e-30 1.1e-30 1.75646e-29 1.1e-30 1.1e-30 1.38204e-07 5.68535e-12 
35 35 0 1.2917e-28 4.99578e-30 1.1e-30 1.1e-30 1.1e-30 1.75647e-29 1.1e-30 1.1e-30 1.38203e-07 5.68534e-12 
45 35 0 1.1865e-28 4.59604e-30 1.1e-30 1.1e-30 1.1e-30 1.75648e-29 1.1e-30 1.1e-30 1.38203e-07 5.68534e-12 
55 35 0 2.56801e-28 9.7238e-30 1.1e-30 1.1e-30 1.1e-30 1.75647e-29 1.1e-30 1.1e-30 1.38204e-07 5.68535e-12 
65 35 0 1.60817e-28 6.15826e-30 1.1e-30 1.1e-30 1.1e-30 1.75646e-29 1.1e-30 1.1e-30 1.38204e-07 5.68535e-12 
75 35 0 1.2314e-28 4.75862e-30 1.1e-30 1.1e-30 1.1e-30 1.75646e-29 1.1e-30 1.1e-30 1.38204e-07 5.68534e-12 
85 35 0 1.16453e-28 4.51019e-30 1.1e-30 1.1e-30 1.1e-30 1.75646e-29 1.1e-30 1.1e-30 1.38204e-07 5.68533e-12 
95 35 0 1.14756e-28 4.44722e-30 1.1e-30 1.1e-30 1.1e-30 1.75646e-29 1.1e-30 1.1e-30 1.38204e-07 5.68534e-12 
105 35 0 1.91705e-28 7.38213e-30 1.1e-30 1.1e-30 1.1e-30 1.75646e-29 1.1e-30 1.1e-30 1.38205e-07 5.68536e-12 
115 35 0 3.34979e-26 1.28547e-27 3.30054e-30 1.1e-30 1.10001e-30 6.83391e-27 1.10038e-30 1.1e-30 1.38204e-07 5.68534e-12 
125 35 0 3.44983e-26 1.32353e-27 1.07549e-29 1.1e-30 1.10008e-30 1.63989e-25 1.10929e-30 1.10002e-30 1.38204e-07 5.68534e-12 
135 35 0 2.32725e-26 8.92897e-28 2.78797e-29 1.1e-30 1.10028e-30 5.52104e-25 1.13233e-30 1.10008e-30 1.38204e-07 5.68534e-12 
145 35 0 1.14999e-26 4.41097e-28 4.93914e-29 1.1e-30 1.10049e-30 4.72034e-25 1.12795e-30 1.10007e-30 1.38204e-07 5.68535e-12 
155 35 0 5.73034e-27 2.19825e-28 3.35571e-29 1.1e-30 1.10033e-30 2.58094e-25 1.11543e-30 1.10004e-30 1.38204e-07 5.68535e-12 
165 35 0 6.37022e-27 2.44828e-28 3.40793e-27 1.1e-30 1.1191e-30 1.32768e-25 1.10808e-30 1.10002e-30 1.38204e-07 5.68535e-12 
175 35 0 1.13052e-26 4.36005e-28 1.51711e-26 1.1e-30 1.18459e-30 1.41987e-25 1.10905e-30 1.10002e-30 1.38204e-07 5.68534e-12 
185 35 0 1.60888e-26 6.20373e-28 2.49143e-26 1.1e-30 1.23907e-30 1.33805e-25 1.1088e-30 1.10003e-30 1.38204e-07 5.68534e-12 
195 35 0 9.20154e-26 3.57542e-27 2.26033e-26 1.1e-30 1.22626e-30 1.1167e-25 1.10767e-30 1.10002e-30 1.38204e-07 5.68535e-12 
205 35 0 7.71898e-24 3.02499e-25 1.74498e-26 1.1e-30 1.19762e-30 7.4612e-26 1.1054e-30 1.10002e-30 1.38204e-07 5.68535e-12 
215 35 0 6.84992e-22 2.69424e-23 1.2426e-26 1.1e-30 1.16965e-30 4.29051e-26 1.10327e-30 1.10001e-30 1.38204e-07 5.68536e-12 
225 35 0 4.46255e-20 1.74812e-21 7.49724e-27 1.1e-30 1.14233e-30 1.84119e-26 1.10151e-30 1.10001e-30 1.38204e-07 5.68539e-12 
235 35 0 1.54551e-18 6.04441e-20 7.51617e-24 1.10033e-30 4.28366e-29 3.18227e-24 1.27692e-30 1.10039e-30 1.38201e-07 5.68559e-12 
245 35 0 3.22787e-17 1.28355e-18 1.5053e-21 1.16907e-30 8.35956e-27 2.4702e-22 1.48077e-29 1.13028e-30 1.38165e-07 5.68781e-12 
255 35 0 3.04662e-16 1.23178e-17 2.98233e-20 2.62531e-30 1.65616e-25 2.01457e-21 1.12887e-28 1.34695e-30 1.37924e-07 5.70309e-12 
265 35 0 1.16433e-15 4.73553e-17 1.33174e-19 8.36941e-30 7.39592e-25 5.97673e-21 3.32824e-28 1.83283e-30 1.37424e-07 5.73615e-12 
275 35 0 2.31911e-15 9.41379e-17 1.53612e-19 9.97758e-30 8.53161e-25 6.56083e-21 3.6534e-28 1.90468e-30 1.37249e-07 5.74789e-12 
285 35 0 2.81859e-15 1.14121e-16 1.08309e-19 7.67152e-30 6.01576e-25 4.70126e-21 2.62155e-28 1.67676e-30 1.37266e-07 5.74632e-12 
295 35 0 2.67177e-15 1.08088e-16 4.92779e-20 4.28702e-30 2.73715e-25 2.37932e-21 1.33303e-28 1.39213e-30 1.37269e-07 5.74535e-12 
305 35 0 2.02974e-15 8.20831e-17 8.96578e-21 1.66464e-30 4.97986e-26 5.09144e-22 2.93951e-29 1.16251e-30 1.37224e-07 5.74764e-12 
315 35 0 1.19918e-15 4.80749e-17 6.34801e-22 1.13883e-30 3.52668e-27 3.91104e-23 3.27361e-30 1.1048e-30 1.37505e-07 5.72891e-12 
320 35 0 1.19918e-15 4.80749e-17 6.34801e-22 1.13883e-30 3.52668e-27 3.91104e-23 3.27361e-30 1.1048e-30 1.37505e-07 5.72891e-12 
0 45 0 1.13691e-28 4.40757e-30 1.1e-30 1.1e-30 1.1e-30 1.75644e-29 1.1e-30 1.1e-30 1.38204e-07 5.68535e-12 
5 45 0 1.13691e-28 4.40757e-30 1.1e-30 1.1e-30 1.1e-30 1.75644e-29 1.1e-30 1.1e-30 1.38204e-07 5.68535e-12 
15 45 0 1.13692e-28 4.4076e-30 1.1e-30 1.1e-30 1.1e-30 1.75644e-29 1.1e-30 1.1e-30 1.38204e-07 5.68535e-12 
25 45 0 1.13718e-28 4.40857e-30 1.1e-30 1.1e-30 1.1e-30 1.75646e-29 1.1e-30 1.1e-30 1.38204e-07 5.68535e-12 
35 45 0 1.81355e-28 6.97704e-30 1.1e-30 1.1e-30 1.1e-30 1.75647e-29 1.1e-30 1.1e-30 1.38204e-07 5.68535e-12 
45 45 0 1.61905e-28 6.23833e-30 1.1e-30 1.1e-30 1.1e-30 1.75647e-29 1.1e-30 1.1e-30 1.38204e-07 5.68535e-12 
55 45 0 3.67182e-28 1.3835e-29 1.1e-30 1.1e-30 1.1e-30 1.75647e-29 1.1e-30 1.1e-30 1.38204e-07 5.68535e-12 
65 45 0 2.33937e-28 8.87769e-30 1.1e-30 1.1e-30 1.1e-30 1.75646e-29 1.1e-30 1.1e-30 1.38204e-07 5.68535e-12 
75 45 0 1.48258e-28 5.69258e-30 1.1e-30 1.1e-30 1.1e-30 1.75646e-29 1.1e-30 1.1e-30 1.38204e-07 5.68534e-12 
85 45 0 1.25756e-28 4.85612e-30 1.1e-30 1.1e-30 1.1e-30 1.75646e-29 1.1e-30 1.1e-30 1.38203e-07 5.68533e-12 
95 45 0 6.40358e-28 2.36656e-29 1.10071e-30 1.1e-30 1.1e-30 4.3706e-27 1.10024e-30 1.1e-30 1.38204e-07 5.68534e-12 
105 45 0 2.45906e-27 9.06691e-29 3.67069e-30 1.1e-30 1.10002e-30 1.40671e-24 1.17807e-30 1.10018e-30 1.38205e-07 5.68536e-12 
115 45 0 7.92478e-25 3.03873e-26 4.06369e-28 1.1e-30 1.10238e-30 1.44202e-23 1.90036e-30 1.10177e-30 1.38205e-07 5.68536e-12 
125 45 0 5.36797e-25 2.05832e-26 1.85478e-27 1.1e-30 1.11071e-30 4.62056e-23 3.6657e-30 1.10569e-30 1.38204e-07 5.68535e-12 
135 45 0 2.44145e-25 9.3644e-27 4.10009e-26 1.1e-30 1.32853e-30 1.41263e-22 8.94474e-30 1.11741e-30 1.38204e-07 5.68535e-12 
145 45 0 2.14379e-25 8.22092e-27 4.89351e-25 1.10002e-30 3.81828e-30 2.31717e-22 1.39659e-29 1.1285e-30 1.38204e-07 5.68535e-12 
155 45 0 1.60521e-25 6.15527e-27 3.81572e-25 1.10001e-30 3.21965e-30 1.41353e-22 8.94924e-30 1.11739e-30 1.38204e-07 5.68535e-12 
165 45 0 1.15446e-25 4.42703e-27 2.66733e-25 1.10001e-30 2.58184e-30 6.72289e-23 4.83358e-30 1.10828e-30 1.38204e-07 5.68535e-12 
175 45 0 9.49008e-26 3.64114e-27 1.95869e-25 1.10001e-30 2.1882e-30 3.31369e-23 2.94099e-30 1.10408e-30 1.38204e-07 5.68535e-12 
185 45 0 7.30679e-26 2.8067e-27 1.54355e-25 1.10001e-30 1.958e-30 1.64808e-23 2.01647e-30 1.10204e-30 1.38204e-07 5.68535e-12 
195 45 0 9.28782e-26 3.58294e-27 1.23873e-25 1.10001e-30 1.78899e-30 8.30976e-24 1.56301e-30 1.10103e-30 1.38204e-07 5.68534e-12 
205 45 0 1.53953e-24 6.03578e-26 9.60524e-26 1.10001e-30 1.63458e-30 4.17297e-24 1.33342e-30 1.10052e-30 1.38204e-07 5.68534e-12 
215 45 0 1.44719e-22 5.69204e-24 6.39791e-26 1.10001e-30 1.4565e-30 1.61297e-24 1.1909e-30 1.1002e-30 1.38204e-07 5.68535e-12 
225 45 0 1.0211e-20 3.99992e-22 4.66555e-25 1.10002e-30 3.69128e-30 2.10994e-24 1.21817e-30 1.10026e-30 1.38204e-07 5.68536e-12 
235 45 0 4.3763e-19 1.71281e-20 2.81416e-22 1.10847e-30 1.56337e-27 4.73228e-22 2.73615e-29 1.15802e-30 1.38203e-07 5.68543e-12 
245 45 0 1.28246e-17 5.08925e-19 8.88043e-21 1.4106e-30 4.93024e-26 7.42476e-21 4.13122e-28 2.01026e-30 1.38192e-07 5.68615e-12 
255 45 0 1.66615e-16 6.67662e-18 1.34387e-19 6.77011e-30 7.46165e-25 3.15648e-20 1.75263e-27 4.96944e-30 1.38093e-07 5.69231e-12 
265 45 0 8.01037e-16 3.23573e-17 7.05304e-19 3.42944e-29 3.91644e-24 4.92307e-20 2.73321e-27 7.13573e-30 1.37741e-07 5.71486e-12 
275 45 0 1.73739e-15 7.03281e-17 6.81905e-19 3.61027e-29 3.7869e-24 3.39459e-20 1.88523e-27 5.26243e-30 1.37402e-07 5.73747e-12 
285 45 0 2.40374e-15 9.73374e-17 2.31968e-19 1.44909e-29 1.28838e-24 1.0349e-20 5.75753e-28 2.36954e-30 1.37299e-07 5.74419e-12 
295 45 0 2.40755e-15 9.74435e-17 5.28746e-20 4.28954e-30 2.93686e-25 2.86228e-21 1.6012e-28 1.45117e-30 1.37249e-07 5.74663e-12 
305 45 0 2.00027e-15 8.08986e-17 9.95872e-21 1.70241e-30 5.53152e-26 6.2136e-22 3.56327e-29 1.17621e-30 1.37199e-07 5.74885e-12 
315 45 0 1.30646e-15 5.2429e-17 9.94134e-22 1.15983e-30 5.52293e-27 6.88653e-23 4.92809e-30 1.10844e-30 1.37475e-07 5.7309e-12 
320 45 0 1.30646e-15 5.2429e-17 9.94134e-22 1.15983e-30 5.52293e-27 6.88653e-23 4.92809e-30 1.10844e-30 1.37475e-07 5.7309e-12 
0 55 0 1.13691e-28 4.40757e-30 1.1e-30 1.1e-30 1.1e-30 1.75644e-29 1.1e-30 1.1e-30 1.38204e-07 5.68535e-12 
5 55 0 1.13691e-28 4.40757e-30 1.1e-30 1.1e-30 1.1e-30 1.75644e-29 1.1e-30 1.1e-30 1.38204e-07 5.68535e-12 
15 55 0 1.13694e-28 4.40765e-30 1.1e-30 1.1e-30 1.1e-30 1.75644e-29 1.1e-30 1.1e-30 1.38205e-07 5.68536e-12 
25 55 0 1.13751e-28 4.40984e-30 1.1e-30 1.1e-30 1.1e-30 1.75645e-29 1.1e-30 1.1e-30 1.38205e-07 5.68536e-12 
35 55 0 3.04523e-28 1.1649e-29 1.1e-30 1.1e-30 1.1e-30 1.75646e-29 1.1e-30 1.1e-30 1.38204e-07 5.68535e-12 
45 55 0 3.72211e-28 1.42292e-29 1.1e-30 1.1e-30 1.1e-30 1.75647e-29 1.1e-30 1.1e-30 1.38204e-07 5.68535e-12 
55 55 0 5.88789e-28 2.21655e-29 1.1e-30 1.1e-30 1.1e-30 1.75647e-29 1.1e-30 1.1e-30 1.38204e-07 5.68536e-12 
65 55 0 4.08214e-28 1.5392e-29 1.1e-30 1.1e-30 1.1e-30 1.75646e-29 1.1e-30 1.1e-30 1.38204e-07 5.68536e-12 
75 55 0 2.09607e-28 7.97603e-30 1.1e-30 1.1e-30 1.1e-30 1.75646e-29 1.1e-30 1.1e-30 1.38204e-07 5.68535e-12 
85 55 0 5.42772e-28 2.00932e-29 1.1e-30 1.1e-30 1.1e-30 1.75645e-29 1.1e-30 1.1e-30 1.38204e-07 5.68533e-12 
95 55 0 5.01907e-27 1.83617e-28 1.10731e-30 1.1e-30 1.1e-30 3.4665e-26 1.10192e-30 1.10001e-30 1.38204e-07 5.68534e-12 
105 55 0 2.78009e-26 1.04317e-27 2.07746e-26 1.1e-30 1.21528e-30 1.0739e-23 1.69594e-30 1.10132e-30 1.38204e-07 5.68536e-12 
115 55 0 2.71292e-24 1.0398e-25 2.35837e-25 1.10001e-30 2.40911e-30 1.88654e-22 1.15694e-29 1.12315e-30 1.38205e-07 5.68536e-12 
125 55 0 3.11597e-24 1.20016e-25 1.93015e-24 1.10001e-30 1.18121e-29 1.66689e-21 9.36044e-29 1.30448e-30 1.38204e-07 5.68536e-12 
135 55 0 3.66986e-24 1.41872e-25 4.49021e-24 1.10002e-30 2.60197e-29 5.40656e-21 3.01137e-28 1.76313e-30 1.38204e-07 5.68535e-12 
145 55 0 2.66147e-24 1.02757e-25 4.78926e-24 1.10008e-30 2.76879e-29 3.72788e-21 2.07983e-28 1.55728e-30 1.38204e-07 5.68535e-12 
155 55 0 1.47642e-24 5.68589e-26 3.47883e-24 1.10007e-30 2.04149e-29 1.71874e-21 9.64878e-29 1.31088e-30 1.38204e-07 5.68535e-12 
165 55 0 9.76078e-25 3.75097e-26 2.25291e-24 1.10006e-30 1.36103e-29 7.38544e-22 4.20904e-29 1.19064e-30 1.38204e-07 5.68536e-12 
175 55 0 7.62438e-25 2.9272e-26 1.65599e-24 1.10005e-30 1.02962e-29 3.11402e-22 1.83847e-29 1.13823e-30 1.38204e-07 5.68535e-12 
185 55 0 6.28167e-25 2.41156e-26 1.27002e-24 1.10004e-30 8.15325e-30 1.29297e-22 8.27797e-30 1.11588e-30 1.38204e-07 5.68535e-12 
195 55 0 4.97935e-25 1.91237e-26 1.04987e-24 1.10004e-30 6.93118e-30 5.52212e-23 4.16667e-30 1.10679e-30 1.38204e-07 5.68534e-12 
205 55 0 1.11662e-24 4.32805e-26 8.12195e-25 1.10003e-30 5.61168e-30 2.42369e-23 2.44727e-30 1.10299e-30 1.38204e-07 5.68534e-12 
215 55 0 4.26575e-23 1.67702e-24 4.7955e-25 1.10002e-30 3.76479e-30 8.1135e-24 1.55201e-30 1.10101e-30 1.38204e-07 5.68534e-12 
225 55 0 3.07007e-21 1.20564e-22 1.25098e-22 1.10175e-30 6.95443e-28 5.05197e-22 2.91365e-29 1.16195e-30 1.38204e-07 5.68535e-12 
235 55 0 1.78758e-19 7.03017e-21 3.57997e-21 1.1749e-30 1.98725e-26 1.38329e-20 7.68726e-28 2.79588e-30 1.38203e-07 5.68538e-12 
245 55 0 5.81804e-18 2.30616e-19 3.72676e-20 2.04078e-30 2.06873e-25 1.03643e-19 5.75259e-27 1.38065e-29 1.38199e-07 5.68564e-12 
255 55 0 7.68e-17 3.06137e-18 3.25017e-19 1.2179e-29 1.80438e-24 2.90645e-19 1.61296e-26 3.67312e-29 1.38163e-07 5.68785e-12 
265 55 0 5.00881e-16 2.01063e-17 1.73383e-18 7.06641e-29 9.62642e-24 3.05577e-19 1.69584e-26 3.8562e-29 1.37971e-07 5.69984e-12 
275 55 0 1.43655e-15 5.80168e-17 2.03628e-18 9.40354e-29 1.13071e-23 1.47722e-19 8.19943e-27 1.9212e-29 1.37554e-07 5.72715e-12 
285 55 0 1.96583e-15 7.95316e-17 3.88798e-19 2.18691e-29 2.15932e-24 1.61956e-20 9.00319e-28 3.08645e-30 1.37312e-07 5.74288e-12 
295 55 0 1.97837e-15 8.00699e-17 4.07514e-20 3.51841e-30 2.26351e-25 2.35002e-21 1.31674e-28 1.38825e-30 1.37215e-07 5.74856e-12 
305 55 0 1.83281e-15 7.41203e-17 7.42491e-21 1.54539e-30 4.12425e-26 4.93546e-22 2.85324e-29 1.1605e-30 1.37166e-07 5.75056e-12 
315 55 0 1.40714e-15 5.64787e-17 7.61755e-22 1.14579e-30 4.23235e-27 5.61424e-23 4.22122e-30 1.10687e-30 1.37486e-07 5.73018e-12 
320 55 0 1.40714e-15 5.64787e-17 7.61755e-22 1.14579e-30 4.23235e-27 5.61424e-23 4.22122e-30 1.10687e-30 1.37486e-07 5.73018e-12 
0 65 0 1.13692e-28 4.4076e-30 1.1e-30 1.1e-30 1.1e-30 1.75644e-29 1.1e-30 1.1e-30 1.38205e-07 5.68536e-12 
5 65 0 1.13692e-28 4.4076e-30 1.1e-30 1.1e-30 1.1e-30 1.75644e-29 1.1e-30 1.1e-30 1.38205e-07 5.68536e-12 
15 65 0 1.13698e-28 4.40781e-30 1.1e-30 1.1e-30 1.1e-30 1.75644e-29 1.1e-30 1.1e-30 1.38205e-07 5.68536e-12 
25 65 0 1.13806e-28 4.41195e-30 1.1e-30 1.1e-30 1.1e-30 1.75645e-29 1.1e-30 1.1e-30 1.38205e-07 5.68537e-12 
35 65 0 4.52282e-28 1.72538e-29 1.1e-30 1.1e-30 1.1e-30 1.75646e-29 1.1e-30 1.1e-30 1.38204e-07 5.68535e-12 
45 65 0 1.0983e-27 4.18622e-29 1.1e-30 1.1e-30 1.1e-30 1.75647e-29 1.1e-30 1.1e-30 1.38204e-07 5.68535e-12 
55 65 0 1.48587e-27 5.60656e-29 1.1e-30 1.1e-30 1.1e-30 1.75647e-29 1.1e-30 1.1e-30 1.38204e-07 5.68535e-12 
65 65 0 1.06759e-27 4.02315e-29 1.1e-30 1.1e-30 1.1e-30 1.75646e-29 1.1e-30 1.1e-30 1.38204e-07 5.68536e-12 
75 65 0 4.35286e-28 1.64353e-29 1.1e-30 1.1e-30 1.1e-30 1.75646e-29 1.1e-30 1.1e-30 1.38204e-07 5.68535e-12 
85 65 0 8.43007e-28 3.12783e-29 1.1e-30 1.1e-30 1.1e-30 1.75645e-29 1.1e-30 1.1e-30 1.38204e-07 5.68534e-12 
95 65 0 4.5878e-27 1.68186e-28 1.10733e-30 1.1e-30 1.1e-30 2.43366e-26 1.10135e-30 1.1e-30 1.38204e-07 5.68534e-12 
105 65 0 2.25279e-26 8.39668e-28 1.22617e-26 1.1e-30 1.16804e-30 6.65536e-24 1.46933e-30 1.10082e-30 1.38204e-07 5.68535e-12 
115 65 0 2.24984e-24 8.62815e-26 3.23726e-25 1.10001e-30 2.89667e-30 1.65089e-22 1.02615e-29 1.12025e-30 1.38205e-07 5.68537e-12 
125 65 0 1.80603e-23 6.98896e-25 2.72872e-23 1.10003e-30 1.52525e-28 1.08092e-20 6.00939e-28 2.42541e-30 1.38205e-07 5.68536e-12 
135 65 0 6.46806e-23 2.50615e-24 1.15658e-22 1.10015e-30 6.429e-28 2.31677e-20 1.28676e-27 3.94082e-30 1.38204e-07 5.68536e-12 
145 65 0 4.59795e-23 1.78127e-24 8.40592e-23 1.10019e-30 4.67562e-28 1.31216e-20 7.29269e-28 2.70908e-30 1.38204e-07 5.68536e-12 
155 65 0 4.52695e-23 1.75357e-24 8.78328e-23 1.10025e-30 4.88505e-28 5.95954e-21 3.31825e-28 1.83091e-30 1.38204e-07 5.68536e-12 