 title = "   AGARD-WING EULER CASE"
 variables = "x", "y", "z", "rho", "u", "v", "w", "ma", "cp", "s", "ptot", "fmu"                                                                                
 zone t="pl_00101", i=     9, j=    11, f=point                                                     
 -2.4419219E+00 -1.9252385E+00  0.0000000E+00  1.0000000E+00  1.0498815E+00  1.8512243E-01  0.0000000E+00  9.0100000E-01  0.0000000E+00  0.0000000E+00  0.0000000E+00  1.0660882E-12
 -2.6823542E+00 -1.4785500E+00  0.0000000E+00  1.0000000E+00  1.0498815E+00  1.8512243E-01  0.0000000E+00  9.0100000E-01  0.0000000E+00  0.0000000E+00  0.0000000E+00  1.0660882E-12
 -2.8575790E+00 -1.0024999E+00  0.0000000E+00  1.0000000E+00  1.0498815E+00  1.8512243E-01  0.0000000E+00  9.0100000E-01  0.0000000E+00  0.0000000E+00  0.0000000E+00  1.0660882E-12
 -2.9641628E+00 -5.0653946E-01  0.0000000E+00  1.0000000E+00  1.0498815E+00  1.8512243E-01  0.0000000E+00  9.0100000E-01  0.0000000E+00  0.0000000E+00  0.0000000E+00  1.0660882E-12
 -2.9999981E+00 -5.2114489E-04  0.0000000E+00  1.0000000E+00  1.0498815E+00  1.8512243E-01  0.0000000E+00  9.0100000E-01  0.0000000E+00  0.0000000E+00  0.0000000E+00  1.0660882E-12
 -2.9631813E+00  5.1339662E-01  0.0000000E+00  1.0000000E+00  1.0498815E+00  1.8512243E-01  0.0000000E+00  9.0100000E-01  0.0000000E+00  0.0000000E+00  0.0000000E+00  1.0660882E-12
 -2.8534009E+00  1.0168002E+00  0.0000000E+00  1.0000000E+00  1.0498815E+00  1.8512243E-01  0.0000000E+00  9.0100000E-01  0.0000000E+00  0.0000000E+00  0.0000000E+00  1.0660882E-12
 -2.6729045E+00  1.4993500E+00  0.0000000E+00  1.0000000E+00  1.0498815E+00  1.8512243E-01  0.0000000E+00  9.0100000E-01  0.0000000E+00  0.0000000E+00  0.0000000E+00  1.0660882E-12
 -2.4253309E+00  1.9512063E+00  0.0000000E+00  1.0000000E+00  1.0498815E+00  1.8512243E-01  0.0000000E+00  9.0100000E-01  0.0000000E+00  0.0000000E+00  0.0000000E+00  1.0660882E-12
 -1.3692764E+00 -1.0803834E+00  0.0000000E+00  1.0000851E+00  1.0497684E+00  1.8514141E-01  0.0000000E+00  9.0089134E-01  2.1752850E-04  4.5242495E-06 -5.6940528E-06  1.0660882E-12
 -1.4994755E+00 -8.2707459E-01  0.0000000E+00  1.0000805E+00  1.0497720E+00  1.8515638E-01  0.0000000E+00  9.0089625E-01  2.1063434E-04  6.9250514E-06 -7.1021830E-06  1.0660882E-12
 -1.5925556E+00 -5.5904150E-01  0.0000000E+00  1.0000752E+00  1.0497860E+00  1.8517467E-01  0.0000000E+00  9.0091265E-01  1.9318060E-04  4.5489660E-06 -1.4984746E-05  1.0660882E-12
 -1.6467600E+00 -2.8157216E-01  0.0000000E+00  1.0000748E+00  1.0498054E+00  1.8518224E-01  0.0000000E+00  9.0092979E-01  1.9272667E-04  4.8548246E-06 -3.3320766E-05  1.0660882E-12
 -1.6614769E+00 -2.8918457E-04  0.0000000E+00  1.0000781E+00  1.0498241E+00  1.8517795E-01  0.0000000E+00  9.0094448E-01  1.9958376E-04  4.0578768E-06 -5.3165938E-05  1.0660882E-12
 -1.6463552E+00  2.8537187E-01  0.0000000E+00  1.0000744E+00  1.0498401E+00  1.8517397E-01  0.0000000E+00  9.0095850E-01  1.8825402E-04  2.7654609E-06 -6.1939455E-05  1.0660882E-12
 -1.5905223E+00  5.6705540E-01  0.0000000E+00  1.0000678E+00  1.0498565E+00  1.8517406E-01  0.0000000E+00  9.0097450E-01  1.6754490E-04  2.3383865E-07 -6.7529329E-05  1.0660882E-12
 -1.4946474E+00  8.3885646E-01  0.0000000E+00  1.0000576E+00  1.0498728E+00  1.8517524E-01  0.0000000E+00  9.0099166E-01  1.3613263E-04 -3.2477056E-06 -6.8310852E-05  1.0660882E-12
 -1.3605214E+00  1.0952390E+00  0.0000000E+00  1.0000309E+00  1.0498833E+00  1.8516867E-01  0.0000000E+00  9.0100579E-01  6.4372404E-05 -6.7058091E-06 -4.2864838E-05  1.0660882E-12
 -6.6262722E-01 -5.2380067E-01  0.0000000E+00  1.0002415E+00  1.0494976E+00  1.8525152E-01  0.0000000E+00  9.0064514E-01  6.3721670E-04  2.4047037E-05  2.3000145E-05  1.0660882E-12
 -7.2551197E-01 -4.0081111E-01  0.0000000E+00  1.0002111E+00  1.0495283E+00  1.8527696E-01  0.0000000E+00  9.0067916E-01  5.6514349E-04  2.5649871E-05  2.7038131E-05  1.0660882E-12
 -7.7044082E-01 -2.7084625E-01  0.0000000E+00  1.0001876E+00  1.0495836E+00  1.8531752E-01  0.0000000E+00  9.0073825E-01  4.9607599E-04  1.9287277E-05  2.1584641E-06  1.0660882E-12
 -7.9635280E-01 -1.3635157E-01  0.0000000E+00  1.0001750E+00  1.0496472E+00  1.8533633E-01  0.0000000E+00  9.0079575E-01  4.6685829E-04  2.0263450E-05 -4.3631250E-05  1.0660882E-12
 -8.0319798E-01 -1.4050293E-04  0.0000000E+00  1.0001787E+00  1.0497088E+00  1.8531521E-01  0.0000000E+00  9.0084481E-01  4.6978612E-04  1.6810550E-05 -9.8525603E-05  1.0660882E-12
 -7.9615682E-01  1.3814923E-01  0.0000000E+00  1.0001688E+00  1.0497594E+00  1.8528964E-01  0.0000000E+00  9.0088783E-01  4.3416526E-04  1.0421642E-05 -1.2497595E-04  1.0660882E-12
 -7.6948315E-01  2.7466133E-01  0.0000000E+00  1.0001494E+00  1.0498044E+00  1.8527593E-01  0.0000000E+00  9.0093101E-01  3.6984549E-04  9.9713630E-07 -1.3529356E-04  1.0660882E-12
 -7.2325641E-01  4.0643936E-01  0.0000000E+00  1.0001176E+00  1.0498427E+00  1.8526717E-01  0.0000000E+00  9.0097215E-01  2.7279910E-04 -9.6568266E-06 -1.2479282E-04  1.0660882E-12
 -6.5848267E-01  5.3089190E-01  0.0000000E+00  1.0000493E+00  1.0498692E+00  1.8524835E-01  0.0000000E+00  9.0100785E-01  8.8408536E-05 -1.8730183E-05 -5.8754642E-05  1.0660882E-12
 -2.9408398E-01 -2.3352258E-01  0.0000000E+00  1.0007301E+00  1.0487276E+00  1.8564455E-01  0.0000000E+00  8.9995053E-01  1.9341851E-03  7.6743537E-05  3.9894332E-05  1.0660882E-12
 -3.2270476E-01 -1.7896360E-01  0.0000000E+00  1.0005970E+00  1.0488647E+00  1.8564499E-01  0.0000000E+00  9.0009622E-01  1.5762496E-03  5.9828412E-05  8.5108410E-05  1.0660882E-12
 -3.4346306E-01 -1.2116762E-01  0.0000000E+00  1.0004987E+00  1.0490477E+00  1.8570173E-01  0.0000000E+00  9.0028149E-01  1.3069191E-03  4.4440134E-05  3.7113826E-05  1.0660882E-12
 -3.5559538E-01 -6.1084945E-02  0.0000000E+00  1.0004092E+00  1.0492252E+00  1.8573964E-01  0.0000000E+00  9.0044843E-01  1.0958401E-03  4.9801354E-05 -2.4099795E-05  1.0660882E-12
 -3.5927758E-01 -6.3598636E-05  0.0000000E+00  1.0003783E+00  1.0493937E+00  1.8567358E-01  0.0000000E+00  9.0058842E-01  1.0044528E-03  4.1101002E-05 -1.2406007E-04  1.0660882E-12
 -3.5548115E-01  6.1840404E-02  0.0000000E+00  1.0003435E+00  1.0495296E+00  1.8558440E-01  0.0000000E+00  9.0070386E-01  8.8252322E-04  2.0617063E-05 -1.8005576E-04  1.0660882E-12
 -3.4301245E-01  1.2278364E-01  0.0000000E+00  1.0002905E+00  1.0496398E+00  1.8552194E-01  0.0000000E+00  9.0080787E-01  7.0543391E-04 -5.8284036E-06 -1.9232110E-04  1.0660882E-12
 -3.2171485E-01  1.8134823E-01  0.0000000E+00  1.0002063E+00  1.0497237E+00  1.8547691E-01  0.0000000E+00  9.0089757E-01  4.5372482E-04 -3.0969455E-05 -1.4666109E-04  1.0660882E-12
 -2.9225439E-01  2.3649254E-01  0.0000000E+00  1.0000542E+00  1.0497960E+00  1.8543899E-01  0.0000000E+00  9.0098734E-01  4.8540934E-05 -4.8229915E-05 -1.3844663E-05  1.0660882E-12
 -1.2507300E-01 -1.0040332E-01  0.0000000E+00  1.0022774E+00  1.0467916E+00  1.8677631E-01  0.0000000E+00  8.9818075E-01  5.9408561E-03  1.8555900E-04 -3.1430238E-04  1.0660882E-12
 -1.3781728E-01 -7.7136219E-02  0.0000000E+00  1.0018335E+00  1.0472204E+00  1.8663812E-01  0.0000000E+00  8.9863913E-01  4.6786173E-03  9.0571322E-05 -9.5537939E-05  1.0660882E-12
 -1.4731181E-01 -5.2405927E-02  0.0000000E+00  1.0015144E+00  1.0477370E+00  1.8661978E-01  0.0000000E+00  8.9914070E-01  3.8238355E-03  5.2076846E-05 -1.5436573E-04  1.0660882E-12
 -1.5294226E-01 -2.6478304E-02  0.0000000E+00  1.0011426E+00  1.0481764E+00  1.8665792E-01  0.0000000E+00  8.9957007E-01  2.9408655E-03  7.1105455E-05 -1.1890614E-04  1.0660882E-12
 -1.5500098E-01 -2.8198241E-05  0.0000000E+00  1.0009258E+00  1.0485790E+00  1.8649890E-01  0.0000000E+00  8.9992708E-01  2.3803520E-03  5.6290321E-05 -1.8791985E-04  1.0660882E-12
 -1.5287033E-01  2.6755417E-02  0.0000000E+00  1.0007881E+00  1.0489064E+00  1.8626941E-01  0.0000000E+00  9.0021339E-01  1.9504758E-03  4.7909203E-06 -2.5443211E-04  1.0660882E-12
 -1.4710338E-01  5.3015027E-02  0.0000000E+00  1.0006378E+00  1.0491582E+00  1.8608373E-01  0.0000000E+00  9.0044918E-01  1.4759540E-03 -5.4234993E-05 -2.4078137E-04  1.0660882E-12
 -1.3742162E-01  7.8039549E-02  0.0000000E+00  1.0004285E+00  1.0493402E+00  1.8596056E-01  0.0000000E+00  9.0064009E-01  8.8218185E-04 -9.8574805E-05 -1.1066830E-04  1.0660882E-12
 -1.2432153E-01  1.0149658E-01  0.0000000E+00  1.0001148E+00  1.0495425E+00  1.8592838E-01  0.0000000E+00  9.0086732E-01  8.1524378E-05 -1.1438760E-04  9.7647556E-05  1.0660882E-12
 -5.2155517E-02 -4.2970825E-02  0.0000000E+00  1.0064773E+00  1.0425962E+00  1.8940912E-01  0.0000000E+00  8.9426878E-01  1.6586228E-02  3.4228944E-04 -2.0983131E-03  1.0660882E-12
 -5.7868645E-02 -3.3104327E-02  0.0000000E+00  1.0051152E+00  1.0436626E+00  1.8891239E-01  0.0000000E+00  8.9546721E-01  1.2646511E-02  1.7759871E-05 -1.1705975E-03  1.0660882E-12
 -6.2301226E-02 -2.2605013E-02  0.0000000E+00  1.0042544E+00  1.0448809E+00  1.8848221E-01  0.0000000E+00  8.9661305E-01  1.0345565E-02 -8.1772616E-05 -1.1099994E-03  1.0660882E-12
 -6.4917289E-02 -1.1446288E-02  0.0000000E+00  1.0032037E+00  1.0458328E+00  1.8837088E-01  0.0000000E+00  8.9755690E-01  7.8260192E-03 -4.0659988E-05 -7.0629225E-04  1.0660882E-12
 -6.6073976E-02 -1.2817383E-05  0.0000000E+00  1.0024487E+00  1.0466638E+00  1.8808993E-01  0.0000000E+00  8.9834758E-01  5.9378194E-03 -5.5395872E-05 -4.9330608E-04  1.0660882E-12
 -6.4869411E-02  1.1516558E-02  0.0000000E+00  1.0020178E+00  1.0473663E+00  1.8767805E-01  0.0000000E+00  8.9899183E-01  4.7016457E-03 -1.5387046E-04 -4.9079124E-04  1.0660882E-12
 -6.2208716E-02  2.2781581E-02  0.0000000E+00  1.0016265E+00  1.0478990E+00  1.8729692E-01  0.0000000E+00  8.9948816E-01  3.5810564E-03 -2.4227037E-04 -3.9331424E-04  1.0660882E-12
 -5.7745531E-02  3.3375815E-02  0.0000000E+00  1.0011730E+00  1.0482895E+00  1.8712300E-01  0.0000000E+00  8.9988204E-01  2.4108033E-03 -2.7213037E-04 -1.5637076E-04  1.0660882E-12
 -5.1888183E-02  4.3269653E-02  0.0000000E+00  1.0005894E+00  1.0488094E+00  1.8725245E-01  0.0000000E+00  9.0041357E-01  1.0714741E-03 -2.1619290E-04  2.7558124E-05  1.0660882E-12
 -2.1528076E-02 -1.8847411E-02  0.0000000E+00  1.0161493E+00  1.0345753E+00  1.9421206E-01  0.0000000E+00  8.8657233E-01  4.0849499E-02  5.1959021E-04 -7.4089530E-03  1.0660882E-12
 -2.4193406E-02 -1.4557559E-02  0.0000000E+00  1.0124976E+00  1.0369789E+00  1.9313557E-01  0.0000000E+00  8.8946570E-01  3.0064510E-02 -4.4797211E-04 -4.4911190E-03  1.0660882E-12
 -2.6393101E-02 -1.0017118E-02  0.0000000E+00  1.0104368E+00  1.0393694E+00  1.9163795E-01  0.0000000E+00  8.9169790E-01  2.4497776E-02 -7.1047201E-04 -3.7752013E-03  1.0660882E-12
 -2.7631247E-02 -5.0788103E-03  0.0000000E+00  1.0082753E+00  1.0411720E+00  1.9098562E-01  0.0000000E+00  8.9346341E-01  1.9209613E-02 -6.8057093E-04 -2.7065428E-03  1.0660882E-12
 -2.8299805E-02 -6.2255858E-06  0.0000000E+00  1.0065125E+00  1.0426668E+00  1.9069821E-01  0.0000000E+00  8.9496828E-01  1.4879160E-02 -6.6800362E-04 -1.8916526E-03  1.0660882E-12
 -2.7596623E-02  5.0620907E-03  0.0000000E+00  1.0054340E+00  1.0440043E+00  1.9034709E-01  0.0000000E+00  8.9625990E-01  1.2052207E-02 -7.6129127E-04 -1.6926592E-03  1.0660882E-12
 -2.6355436E-02  1.0013164E-02  0.0000000E+00  1.0044787E+00  1.0450148E+00  1.8993570E-01  0.0000000E+00  8.9719818E-01  9.7338118E-03 -7.3977822E-04 -1.3976014E-03  1.0660882E-12
 -2.4193389E-02  1.4567628E-02  0.0000000E+00  1.0035739E+00  1.0457828E+00  1.9012445E-01  0.0000000E+00  8.9794516E-01  7.8242152E-03 -5.5802412E-04 -1.1258927E-03  1.0660882E-12
 -2.1474121E-02  1.8820679E-02  0.0000000E+00  1.0025045E+00  1.0468978E+00  1.9086543E-01  0.0000000E+00  8.9900543E-01  5.8564203E-03 -1.7938615E-04 -1.1603246E-03  1.0660882E-12
 -8.8085933E-03 -8.8292239E-03  0.0000000E+00  1.0352471E+00  1.0202962E+00  2.0044423E-01  0.0000000E+00  8.7223053E-01  8.9533071E-02  1.1305596E-03 -1.8945372E-02  1.0660882E-12
 -1.0166972E-02 -6.8324986E-03  0.0000000E+00  1.0277382E+00  1.0259084E+00  1.9912073E-01  0.0000000E+00  8.7916765E-01  6.5570822E-02 -1.7192342E-03 -1.3185920E-02  1.0660882E-12
 -1.1391753E-02 -4.7584013E-03  0.0000000E+00  1.0236223E+00  1.0300357E+00  1.9638538E-01  0.0000000E+00  8.8320508E-01  5.3889509E-02 -2.5196962E-03 -1.1051508E-02  1.0660882E-12
 -1.2006822E-02 -2.4107397E-03  0.0000000E+00  1.0204716E+00  1.0332333E+00  1.9484519E-01  0.0000000E+00  8.8624170E-01  4.5728313E-02 -2.7134538E-03 -9.7804555E-03  1.0660882E-12
 -1.2421875E-02 -3.4179689E-06  0.0000000E+00  1.0174488E+00  1.0356833E+00  1.9476268E-01  0.0000000E+00  8.8871944E-01  3.8512279E-02 -2.5654218E-03 -8.4230483E-03  1.0660882E-12
 -1.1979121E-02  2.3578438E-03  0.0000000E+00  1.0149045E+00  1.0377918E+00  1.9520553E-01  0.0000000E+00  8.9085669E-01  3.2724118E-02 -2.2846612E-03 -7.4901807E-03  1.0660882E-12
 -1.1379659E-02  4.6799895E-03  0.0000000E+00  1.0123107E+00  1.0392143E+00  1.9569254E-01  0.0000000E+00  8.9223050E-01  2.7668225E-02 -1.5280913E-03 -6.1359549E-03  1.0660882E-12
 -1.0221882E-02  6.7357188E-03  0.0000000E+00  1.0101657E+00  1.0403249E+00  1.9776689E-01  0.0000000E+00  8.9339227E-01  2.4217546E-02 -4.9198822E-04 -5.4520830E-03  1.0660882E-12
 -8.8476567E-03  8.6707762E-03  0.0000000E+00  1.0077692E+00  1.0422769E+00  2.0001213E-01  0.0000000E+00  8.9523052E-01  2.0520932E-02  7.5921119E-04 -5.3614912E-03  1.0660882E-12
 -3.5512694E-03 -4.6883547E-03  0.0000000E+00  1.0667362E+00  9.9628245E-01  2.0351424E-01  0.0000000E+00  8.4646248E-01  1.7526281E-01  4.5068558E-03 -3.7768684E-02  1.0660882E-12
 -4.3530273E-03 -3.6302491E-03  0.0000000E+00  1.0561731E+00  1.0086424E+00  2.0413901E-01  0.0000000E+00  8.6148232E-01  1.3466273E-01 -2.7721747E-03 -3.2041815E-02  1.0660882E-12
 -5.1547852E-03 -2.5722657E-03  0.0000000E+00  1.0496727E+00  1.0154060E+00  2.0319546E-01  0.0000000E+00  8.6893393E-01  1.1410102E-01 -5.0333861E-03 -2.8886026E-02  1.0660882E-12
 -5.4901121E-03 -1.2984619E-03  0.0000000E+00  1.0461636E+00  1.0212940E+00  2.0179224E-01  0.0000000E+00  8.7455912E-01  1.0352969E-01 -5.9973564E-03 -2.9196801E-02  1.0660882E-12
 -5.7772216E-03 -2.3193359E-06  0.0000000E+00  1.0416606E+00  1.0251150E+00  2.0133923E-01  0.0000000E+00  8.7813098E-01  9.3414100E-02 -5.4053446E-03 -2.7505253E-02  1.0660882E-12
 -5.4659424E-03  1.2304689E-03  0.0000000E+00  1.0357636E+00  1.0272331E+00  2.0320389E-01  0.0000000E+00  8.8044402E-01  8.1821736E-02 -3.7399797E-03 -2.3598899E-02  1.0660882E-12
 -5.1546632E-03  2.4632567E-03  0.0000000E+00  1.0287987E+00  1.0277985E+00  2.0702263E-01  0.0000000E+00  8.8145450E-01  6.9788092E-02 -8.5648715E-04 -1.8007908E-02  1.0660882E-12
 -4.4323732E-03  3.4899903E-03  0.0000000E+00  1.0232026E+00  1.0285880E+00  2.1457191E-01  0.0000000E+00  8.8305714E-01  6.1164523E-02  2.0566273E-03 -1.4946498E-02  1.0660882E-12
 -3.6307373E-03  4.4769286E-03  0.0000000E+00  1.0174084E+00  1.0319698E+00  2.1956451E-01  0.0000000E+00  8.8663239E-01  5.1142590E-02  4.4960284E-03 -1.3233033E-02  1.0660882E-12
 -5.3564453E-04 -2.1114503E-03  0.0000000E+00  1.1056401E+00  9.6170860E-01  1.8731438E-01  0.0000000E+00  8.0546728E-01  2.9660846E-01  1.5285892E-02 -5.7793086E-02  1.0660882E-12
 -1.0816962E-03 -1.5739632E-03  0.0000000E+00  1.0969600E+00  9.7979210E-01  1.9455303E-01  0.0000000E+00  8.2767867E-01  2.4866200E-01  2.6157568E-03 -5.6536795E-02  1.0660882E-12
 -1.5015835E-03 -1.0529737E-03  0.0000000E+00  1.0871770E+00  9.8760611E-01  2.0369936E-01  0.0000000E+00  8.3853535E-01  2.1649800E-01 -9.8970221E-04 -5.1240935E-02  1.0660882E-12
 -1.6820364E-03 -5.0715910E-04  0.0000000E+00  1.0801125E+00  9.9630843E-01  2.0854287E-01  0.0000000E+00  8.4818245E-01  1.9559699E-01 -2.4926171E-03 -5.0546730E-02  1.0660882E-12
 -1.7852783E-03 -7.3242188E-07  0.0000000E+00  1.0724414E+00  1.0014892E+00  2.0915703E-01  0.0000000E+00  8.5314144E-01  1.7884950E-01 -1.1185003E-03 -4.6936230E-02  1.0660882E-12
 -1.6748661E-03  4.8503376E-04  0.0000000E+00  1.0625605E+00  1.0023531E+00  2.1426249E-01  0.0000000E+00  8.5486537E-01  1.6036405E-01  2.2608634E-03 -3.8820144E-02  1.0660882E-12
 -1.5042111E-03  1.0153613E-03  0.0000000E+00  1.0501440E+00  1.0016583E+00  2.2586184E-01  0.0000000E+00  8.5631019E-01  1.3821144E-01  7.1355575E-03 -2.8386483E-02  1.0660882E-12
 -1.1122482E-03  1.5251443E-03  0.0000000E+00  1.0396692E+00  1.0040419E+00  2.4261198E-01  0.0000000E+00  8.6159957E-01  1.1850999E-01  1.0767786E-02 -2.3368133E-02  1.0660882E-12
 -5.6018063E-04  2.0461427E-03  0.0000000E+00  1.0285483E+00  1.0129560E+00  2.5007642E-01  0.0000000E+00  8.7148167E-01  9.3383558E-02  1.2374293E-02 -2.0257135E-02  1.0660882E-12
  8.1300002E-04 -9.5899997E-04  0.0000000E+00  1.1248825E+00  9.2422230E-01  1.2841952E-01  0.0000000E+00  7.5668107E-01  3.9036851E-01  3.6241918E-02 -5.4670827E-02  1.0660882E-12
  3.8130666E-04 -6.5433921E-04  0.0000000E+00  1.1257429E+00  9.3198350E-01  1.4525529E-01  0.0000000E+00  7.6928412E-01  3.6754999E-01  2.4147693E-02 -5.6136671E-02  1.0660882E-12
  1.3220080E-04 -3.7349996E-04  0.0000000E+00  1.1134324E+00  9.3159407E-01  1.7317317E-01  0.0000000E+00  7.7524895E-01  3.3104542E-01  2.2188453E-02 -4.4011404E-02  1.0660882E-12
  2.1011811E-05 -1.5325304E-04  0.0000000E+00  1.0990048E+00  9.3754625E-01  1.9791892E-01  0.0000000E+00  7.8631527E-01  2.9164828E-01  2.1408300E-02 -3.5443085E-02  1.0660882E-12
  0.0000000E+00  0.0000000E+00  0.0000000E+00  1.0870586E+00  9.4415656E-01  2.1326572E-01  0.0000000E+00  7.9572987E-01  2.6207903E-01  2.2207643E-02 -3.0018500E-02  1.0660882E-12
  2.0573470E-05  1.5166910E-04  0.0000000E+00  1.0764585E+00  9.4684021E-01  2.2929252E-01  0.0000000E+00  8.0160071E-01  2.3876628E-01  2.4378251E-02 -2.4086455E-02  1.0660882E-12
  1.2833053E-04  3.6782646E-04  0.0000000E+00  1.0627007E+00  9.5376369E-01  2.5210375E-01  0.0000000E+00  8.1314893E-01  2.0634966E-01  2.6074942E-02 -1.9176916E-02  1.0660882E-12
  3.7255537E-04  6.4640085E-04  0.0000000E+00  1.0498831E+00  9.6869665E-01  2.7415511E-01  0.0000000E+00  8.3232710E-01  1.7094803E-01  2.4863302E-02 -2.0488195E-02  1.0660882E-12
  8.1300002E-04  9.5899997E-04  0.0000000E+00  1.0344196E+00  9.9192553E-01  2.7843621E-01  0.0000000E+00  8.5588932E-01  1.2425143E-01  2.1068134E-02 -2.0373447E-02  1.0660882E-12
 zone t="pl_00201", i=    11, j=    17, f=point                                                     
 -2.4419219E+00 -1.9252385E+00  0.0000000E+00  1.0000000E+00  1.0498815E+00  1.8512243E-01  0.0000000E+00  9.0100000E-01  0.0000000E+00  0.0000000E+00  0.0000000E+00  1.0660882E-12
 -1.3692764E+00 -1.0803834E+00  0.0000000E+00  1.0000730E+00  1.0497713E+00  1.8512961E-01  0.0000000E+00  9.0089384E-01  1.8935749E-04  5.3355816E-06  7.6072967E-06  1.0660882E-12
 -6.6262722E-01 -5.2380067E-01  0.0000000E+00  1.0002096E+00  1.0494768E+00  1.8523474E-01  0.0000000E+00  9.0063220E-01  5.5427466E-04  2.1582414E-05  8.4155104E-05  1.0660882E-12
 -2.9408398E-01 -2.3352258E-01  0.0000000E+00  1.0007095E+00  1.0486305E+00  1.8566164E-01  0.0000000E+00  8.9988702E-01  1.8402201E-03  5.2280601E-05  1.6207968E-04  1.0660882E-12
 -1.2507300E-01 -1.0040332E-01  0.0000000E+00  1.0024548E+00  1.0465167E+00  1.8696692E-01  0.0000000E+00  8.9800070E-01  6.1736200E-03  6.9567118E-05 -2.5117300E-04  1.0660882E-12
 -5.2155517E-02 -4.2970825E-02  0.0000000E+00  1.0073712E+00  1.0419242E+00  1.9009540E-01  0.0000000E+00  8.9381425E-01  1.8165157E-02 -1.2156101E-05 -2.4971890E-03  1.0660882E-12
 -2.1528076E-02 -1.8847411E-02  0.0000000E+00  1.0186380E+00  1.0327331E+00  1.9577894E-01  0.0000000E+00  8.8515332E-01  4.5826438E-02 -1.4491167E-04 -8.6580049E-03  1.0660882E-12
 -8.8085933E-03 -8.8292239E-03  0.0000000E+00  1.0400338E+00  1.0149247E+00  2.0245300E-01  0.0000000E+00  8.6752140E-01  1.0072415E-01  7.0519850E-04 -2.0018119E-02  1.0660882E-12
 -3.5512694E-03 -4.6883547E-03  0.0000000E+00  1.0731249E+00  9.8320053E-01  2.0354675E-01  0.0000000E+00  8.3424926E-01  1.9410161E-01  5.8427549E-03 -3.4761599E-02  1.0660882E-12
 -5.3564453E-04 -2.1114503E-03  0.0000000E+00  1.1111208E+00  9.3975006E-01  1.7992906E-01  0.0000000E+00  7.8425940E-01  3.1911132E-01  1.9315282E-02 -4.7195872E-02  1.0660882E-12
  8.1300002E-04 -9.5899997E-04  0.0000000E+00  1.1294841E+00  8.9993769E-01  1.0391029E-01  0.0000000E+00  7.3212067E-01  4.1402498E-01  4.1672424E-02 -4.1986860E-02  1.0660882E-12
 -2.1746583E+00 -2.2937195E+00  0.0000000E+00  1.0000000E+00  1.0498815E+00  1.8512243E-01  0.0000000E+00  9.0100000E-01  0.0000000E+00  0.0000000E+00  0.0000000E+00  1.0660882E-12
 -1.2406685E+00 -1.3084778E+00  0.0000000E+00  1.0000435E+00  1.0497196E+00  1.8512762E-01  0.0000000E+00  9.0085487E-01  1.2028631E-04  7.5016317E-06  8.9131102E-05  1.0660882E-12
 -6.0900187E-01 -6.4231652E-01  0.0000000E+00  1.0001468E+00  1.0493104E+00  1.8525323E-01  0.0000000E+00  9.0050298E-01  4.1823819E-04  3.2185392E-05  3.0158137E-04  1.0660882E-12
 -2.7146563E-01 -2.8718013E-01  0.0000000E+00  1.0007123E+00  1.0482065E+00  1.8576745E-01  0.0000000E+00  8.9953671E-01  1.8964478E-03  8.0217737E-05  5.0981095E-04  1.0660882E-12
 -1.1455294E-01 -1.2289875E-01  0.0000000E+00  1.0030302E+00  1.0455363E+00  1.8734155E-01  0.0000000E+00  8.9711770E-01  7.6739710E-03  1.1549834E-04 -1.4479827E-04  1.0660882E-12
 -4.6754222E-02 -5.2237626E-02  0.0000000E+00  1.0097372E+00  1.0394880E+00  1.9106013E-01  0.0000000E+00  8.9147004E-01  2.4214529E-02  1.0021213E-04 -3.3696012E-03  1.0660882E-12
 -1.8403437E-02 -2.2741796E-02  0.0000000E+00  1.0245307E+00  1.0257928E+00  1.9705161E-01  0.0000000E+00  8.7833907E-01  6.1544541E-02  4.4731653E-04 -1.0058781E-02  1.0660882E-12
 -6.7390231E-03 -1.0584623E-02  0.0000000E+00  1.0519696E+00  9.9631259E-01  1.9975863E-01  0.0000000E+00  8.4885408E-01  1.3507014E-01  3.0265904E-03 -1.8737890E-02  1.0660882E-12
 -1.9609374E-03 -5.5904542E-03  0.0000000E+00  1.0982394E+00  9.4369059E-01  1.8300999E-01  0.0000000E+00  7.9283775E-01  2.6954152E-01  1.1387151E-02 -3.0872178E-02  1.0660882E-12
  4.5525149E-04 -2.6086452E-03  0.0000000E+00  1.1662072E+00  8.7572086E-01  1.0804036E-01  0.0000000E+00  7.1349302E-01  4.8212521E-01  2.7245331E-02 -5.6445834E-02  1.0660882E-12
  1.5389335E-03 -1.2895110E-03  0.0000000E+00  1.2179364E+00  7.9601350E-01 -1.0059205E-01  0.0000000E+00  6.3536524E-01  6.8155755E-01  5.2680759E-02 -7.5226007E-02  1.0660882E-12
 -1.8630309E+00 -2.6255288E+00  0.0000000E+00  1.0000000E+00  1.0498815E+00  1.8512243E-01  0.0000000E+00  9.0100000E-01  0.0000000E+00  0.0000000E+00  0.0000000E+00  1.0660882E-12
 -1.0813088E+00 -1.5234090E+00  0.0000000E+00  1.0000167E+00  1.0496358E+00  1.8515840E-01  0.0000000E+00  9.0079307E-01  5.9716330E-05  1.0563439E-05  1.9058811E-04  1.0660882E-12
 -5.3831536E-01 -7.5819987E-01  0.0000000E+00  1.0001170E+00  1.0491341E+00  1.8534074E-01  0.0000000E+00  9.0037029E-01  3.6121539E-04  4.1412896E-05  4.7783519E-04  1.0660882E-12
 -2.4053282E-01 -3.4061399E-01  0.0000000E+00  1.0008114E+00  1.0478839E+00  1.8598132E-01  0.0000000E+00  8.9927397E-01  2.1723021E-03  9.8221473E-05  6.3792334E-04  1.0660882E-12
 -9.9955529E-02 -1.4556113E-01  0.0000000E+00  1.0036755E+00  1.0447263E+00  1.8778828E-01  0.0000000E+00  8.9637311E-01  9.3554292E-03  1.6592592E-04 -2.9045909E-04  1.0660882E-12
 -3.9025731E-02 -6.1881479E-02  0.0000000E+00  1.0115924E+00  1.0365093E+00  1.9130575E-01  0.0000000E+00  8.8857638E-01  2.9344409E-02  4.0183783E-04 -3.1277408E-03  1.0660882E-12
 -1.3601008E-02 -2.7137117E-02  0.0000000E+00  1.0287150E+00  1.0161405E+00  1.9279817E-01  0.0000000E+00  8.6838053E-01  7.4527419E-02  1.8457774E-03 -6.5684237E-03  1.0660882E-12
 -3.2069611E-03 -1.2901790E-02  0.0000000E+00  1.0629546E+00  9.7521436E-01  1.7580729E-01  0.0000000E+00  8.2452287E-01  1.7009435E-01  6.8171170E-03 -1.1950858E-02  1.0660882E-12
  1.0279540E-03 -7.0770262E-03  0.0000000E+00  1.1257046E+00  9.1703670E-01  1.1821553E-01  0.0000000E+00  7.5710911E-01  3.5063570E-01  1.6053141E-02 -3.5602593E-02  1.0660882E-12
  2.4910187E-03 -3.3992818E-03  0.0000000E+00  1.2160556E+00  8.6571199E-01  1.4865229E-02  0.0000000E+00  6.9528095E-01  6.1070094E-01  2.4341645E-02 -9.8932788E-02  1.0660882E-12
  3.1705780E-03 -1.8029023E-03  0.0000000E+00  1.2839690E+00  8.3313394E-01 -1.3326631E-01  0.0000000E+00  6.6669196E-01  8.2506494E-01  3.5146141E-02 -1.6879238E-01  1.0660882E-12
 -1.5120167E+00 -2.9153528E+00  0.0000000E+00  1.0000000E+00  1.0498815E+00  1.8512243E-01  0.0000000E+00  9.0100000E-01  0.0000000E+00  0.0000000E+00  0.0000000E+00  1.0660882E-12
 -8.9201558E-01 -1.7212958E+00  0.0000000E+00  1.0000720E+00  1.0495896E+00  1.8519834E-01  0.0000000E+00  9.0075240E-01  1.8851118E-04  6.2945498E-06  1.6154307E-04  1.0660882E-12
 -4.4954774E-01 -8.6961198E-01  0.0000000E+00  1.0002839E+00  1.0490506E+00  1.8547118E-01  0.0000000E+00  9.0029400E-01  7.5655843E-04  3.2420309E-05  3.3604784E-04  1.0660882E-12
 -1.9998026E-01 -3.9312312E-01  0.0000000E+00  1.0012427E+00  1.0476051E+00  1.8628451E-01  0.0000000E+00  8.9901367E-01  3.2185932E-03  8.8661280E-05  3.2647518E-04  1.0660882E-12
 -7.9991311E-02 -1.6810454E-01  0.0000000E+00  1.0046790E+00  1.0432922E+00  1.8806749E-01  0.0000000E+00  8.9500562E-01  1.1984256E-02  2.5183006E-04 -2.9763541E-04  1.0660882E-12
 -2.7655033E-02 -7.1732663E-02  0.0000000E+00  1.0139795E+00  1.0309082E+00  1.8909381E-01  0.0000000E+00  8.8289038E-01  3.6429843E-02  1.0550496E-03 -9.8133112E-04  1.0660882E-12
 -5.7560308E-03 -3.1854957E-02  0.0000000E+00  1.0361706E+00  1.0022602E+00  1.7749985E-01  0.0000000E+00  8.5239438E-01  9.7396636E-02  4.1333015E-03 -2.1672926E-03  1.0660882E-12
  3.1955589E-03 -1.5562054E-02  0.0000000E+00  1.0841737E+00  9.5720545E-01  1.2746520E-01  0.0000000E+00  7.9890942E-01  2.3124826E-01  1.0372116E-02 -1.7510758E-02  1.0660882E-12
  6.8500978E-03 -8.8950191E-03  0.0000000E+00  1.1601475E+00  9.1530293E-01  3.5104151E-02  0.0000000E+00  7.4556429E-01  4.4132218E-01  1.5931758E-02 -6.8382223E-02  1.0660882E-12
  6.7109172E-03 -4.4485806E-03  0.0000000E+00  1.2377849E+00  8.9849299E-01 -5.8545818E-02  0.0000000E+00  7.2301976E-01  6.5314032E-01  1.7145279E-02 -1.4695026E-01  1.0660882E-12
  6.7545278E-03 -2.5788257E-03  0.0000000E+00  1.2818159E+00  9.0527356E-01 -1.2288841E-01  0.0000000E+00  7.2652112E-01  7.8791460E-01  2.2668634E-02 -2.1491376E-01  1.0660882E-12
 -1.1272509E+00 -3.1585414E+00  0.0000000E+00  1.0000000E+00  1.0498815E+00  1.8512243E-01  0.0000000E+00  9.0100000E-01  0.0000000E+00  0.0000000E+00  0.0000000E+00  1.0660882E-12
 -6.7388147E-01 -1.8985454E+00  0.0000000E+00  1.0002277E+00  1.0496296E+00  1.8524089E-01  0.0000000E+00  9.0076753E-01  5.5807116E-04 -1.6760163E-06 -6.4829615E-05  1.0660882E-12
 -3.4142753E-01 -9.7504425E-01  0.0000000E+00  1.0006168E+00  1.0490527E+00  1.8559635E-01  0.0000000E+00  9.0025872E-01  1.5596051E-03  2.2648624E-05 -8.1665451E-05  1.0660882E-12
 -1.4797851E-01 -4.4448218E-01  0.0000000E+00  1.0018050E+00  1.0470911E+00  1.8638086E-01  0.0000000E+00  8.9848650E-01  4.6558402E-03  1.1749140E-04  8.2680941E-05  1.0660882E-12
 -5.2756187E-02 -1.9073194E-01  0.0000000E+00  1.0057328E+00  1.0405914E+00  1.8686895E-01  0.0000000E+00  8.9226704E-01  1.5096188E-02  5.3915529E-04  9.0147370E-04  1.0660882E-12
 -1.0684978E-02 -8.2050271E-02  0.0000000E+00  1.0175726E+00  1.0228831E+00  1.8066792E-01  0.0000000E+00  8.7383733E-01  4.7510311E-02  2.2548400E-03  2.5104698E-03  1.0660882E-12
  7.1462523E-03 -3.7069239E-02  0.0000000E+00  1.0495793E+00  9.8905042E-01  1.4726001E-01  0.0000000E+00  8.3419606E-01  1.3591383E-01  6.6740445E-03 -3.8906309E-03  1.0660882E-12
  1.4528394E-02 -1.8640034E-02  0.0000000E+00  1.1134153E+00  9.5192307E-01  6.7877465E-02  0.0000000E+00  7.8503873E-01  3.0850673E-01  1.1190991E-02 -4.2648426E-02  1.0660882E-12
  1.7591920E-02 -1.1048462E-02  0.0000000E+00  1.1845289E+00  9.3643010E-01 -2.5369527E-02  0.0000000E+00  7.6088149E-01  4.9710803E-01  1.1786852E-02 -1.1146675E-01  1.0660882E-12
  1.5263165E-02 -5.7860501E-03  0.0000000E+00  1.2225892E+00  9.4678673E-01 -8.1989895E-02  0.0000000E+00  7.6712689E-01  5.9865557E-01  1.1519768E-02 -1.6844571E-01  1.0660882E-12
  1.4537915E-02 -3.6792627E-03  0.0000000E+00  1.2309846E+00  9.6904549E-01 -9.3012584E-02  0.0000000E+00  7.8293031E-01  6.3246832E-01  1.6238887E-02 -2.0348060E-01  1.0660882E-12
 -7.1485180E-01 -3.3512452E+00  0.0000000E+00  1.0000000E+00  1.0498815E+00  1.8512243E-01  0.0000000E+00  9.0100000E-01  0.0000000E+00  0.0000000E+00  0.0000000E+00  1.0660882E-12
 -4.2800781E-01 -2.0520704E+00  0.0000000E+00  1.0003910E+00  1.0496705E+00  1.8529198E-01  0.0000000E+00  9.0078041E-01  9.5734992E-04 -3.4367917E-06 -3.0564172E-04  1.0660882E-12
 -2.1197829E-01 -1.0736268E+00  0.0000000E+00  1.0008951E+00  1.0488842E+00  1.8561655E-01  0.0000000E+00  9.0006438E-01  2.2729687E-03  3.8293557E-05 -2.7588376E-04  1.0660882E-12
 -8.1568927E-02 -4.9533588E-01  0.0000000E+00  1.0021917E+00  1.0458953E+00  1.8573298E-01  0.0000000E+00  8.9727178E-01  5.8256772E-03  2.4010237E-04  7.3454389E-04  1.0660882E-12
 -1.5079557E-02 -2.1453197E-01  0.0000000E+00  1.0069031E+00  1.0366041E+00  1.8262225E-01  0.0000000E+00  8.8787983E-01  1.8948910E-02  1.0797505E-03  3.4467191E-03  1.0660882E-12
  1.5125725E-02 -9.3881987E-02  0.0000000E+00  1.0234349E+00  1.0148477E+00  1.6405758E-01  0.0000000E+00  8.6319199E-01  6.4876017E-02  3.7799771E-03  4.1889327E-03  1.0660882E-12
  2.8385211E-02 -4.3624729E-02  0.0000000E+00  1.0675622E+00  9.8251899E-01  1.0754012E-01  0.0000000E+00  8.2109300E-01  1.8464920E-01  8.2862430E-03 -1.6041174E-02  1.0660882E-12
  3.4094308E-02 -2.2793448E-02  0.0000000E+00  1.1375538E+00  9.6064326E-01  1.9133229E-02  0.0000000E+00  7.8770831E-01  3.6770703E-01  9.3664518E-03 -7.5301161E-02  1.0660882E-12
  3.6567505E-02 -1.4071899E-02  0.0000000E+00  1.1840339E+00  9.6626131E-01 -4.5273738E-02  0.0000000E+00  7.8720084E-01  4.8753344E-01  8.0841176E-03 -1.3530081E-01  1.0660882E-12