TITLE= "pressure"
VARIABLES= "X", "Y", "Z", "pressure"
ZONE T="Rectangular zone"
 I=34, J=34, K=18, F=POINT
DT=(SINGLE SINGLE SINGLE SINGLE)
0 0 0 8.21294e+15 
5 0 0 8.21294e+15 
15 0 0 8.22108e+15 
25 0 0 8.25458e+15 
35 0 0 8.29145e+15 
45 0 0 8.27097e+15 
55 0 0 8.20614e+15 
65 0 0 8.1501e+15 
75 0 0 8.14654e+15 
85 0 0 8.18577e+15 
95 0 0 8.17803e+15 
105 0 0 8.02884e+15 
115 0 0 7.82117e+15 
125 0 0 7.63864e+15 
135 0 0 7.50636e+15 
145 0 0 7.32702e+15 
155 0 0 7.09359e+15 
165 0 0 6.78568e+15 
175 0 0 6.56219e+15 
185 0 0 6.39961e+15 
195 0 0 6.27556e+15 
205 0 0 6.1772e+15 
215 0 0 6.09454e+15 
225 0 0 6.01911e+15 
235 0 0 5.94913e+15 
245 0 0 5.88499e+15 
255 0 0 5.82502e+15 
265 0 0 5.76797e+15 
275 0 0 5.71579e+15 
285 0 0 5.67212e+15 
295 0 0 5.63836e+15 
305 0 0 5.61513e+15 
315 0 0 5.6035e+15 
320 0 0 5.6035e+15 
0 5 0 8.21294e+15 
5 5 0 8.21294e+15 
15 5 0 8.22108e+15 
25 5 0 8.25458e+15 
35 5 0 8.29145e+15 
45 5 0 8.27097e+15 
55 5 0 8.20614e+15 
65 5 0 8.1501e+15 
75 5 0 8.14654e+15 
85 5 0 8.18577e+15 
95 5 0 8.17803e+15 
105 5 0 8.02884e+15 
115 5 0 7.82117e+15 
125 5 0 7.63864e+15 
135 5 0 7.50636e+15 
145 5 0 7.32702e+15 
155 5 0 7.09359e+15 
165 5 0 6.78568e+15 
175 5 0 6.56219e+15 
185 5 0 6.39961e+15 
195 5 0 6.27556e+15 
205 5 0 6.1772e+15 
215 5 0 6.09454e+15 
225 5 0 6.01911e+15 
235 5 0 5.94913e+15 
245 5 0 5.88499e+15 
255 5 0 5.82502e+15 
265 5 0 5.76797e+15 
275 5 0 5.71579e+15 
285 5 0 5.67212e+15 
295 5 0 5.63836e+15 
305 5 0 5.61513e+15 
315 5 0 5.6035e+15 
320 5 0 5.6035e+15 
0 15 0 7.98239e+15 
5 15 0 7.98239e+15 
15 15 0 7.99535e+15 
25 15 0 8.01111e+15 
35 15 0 8.01757e+15 
45 15 0 7.99544e+15 
55 15 0 7.94925e+15 
65 15 0 7.90329e+15 
75 15 0 7.86844e+15 
85 15 0 7.82573e+15 
95 15 0 7.75104e+15 
105 15 0 7.65419e+15 
115 15 0 7.55186e+15 
125 15 0 7.4335e+15 
135 15 0 7.32089e+15 
145 15 0 7.14074e+15 
155 15 0 6.91374e+15 
165 15 0 6.68069e+15 
175 15 0 6.49993e+15 
185 15 0 6.36334e+15 
195 15 0 6.25278e+15 
205 15 0 6.15979e+15 
215 15 0 6.07881e+15 
225 15 0 6.00494e+15 
235 15 0 5.93663e+15 
245 15 0 5.87352e+15 
255 15 0 5.81235e+15 
265 15 0 5.75107e+15 
275 15 0 5.69399e+15 
285 15 0 5.64771e+15 
295 15 0 5.61449e+15 
305 15 0 5.59347e+15 
315 15 0 5.5837e+15 
320 15 0 5.5837e+15 
0 25 0 7.76171e+15 
5 25 0 7.76171e+15 
15 25 0 7.77914e+15 
25 25 0 7.79319e+15 
35 25 0 7.79384e+15 
45 25 0 7.77106e+15 
55 25 0 7.72839e+15 
65 25 0 7.68075e+15 
75 25 0 7.62305e+15 
85 25 0 7.54062e+15 
95 25 0 7.44592e+15 
105 25 0 7.37139e+15 
115 25 0 7.31083e+15 
125 25 0 7.23873e+15 
135 25 0 7.12945e+15 
145 25 0 6.95533e+15 
155 25 0 6.75382e+15 
165 25 0 6.56952e+15 
175 25 0 6.42802e+15 
185 25 0 6.31546e+15 
195 25 0 6.21753e+15 
205 25 0 6.13033e+15 
215 25 0 6.05201e+15 
225 25 0 5.97904e+15 
235 25 0 5.9082e+15 
245 25 0 5.84133e+15 
255 25 0 5.77557e+15 
265 25 0 5.70959e+15 
275 25 0 5.65029e+15 
285 25 0 5.60558e+15 
295 25 0 5.57685e+15 
305 25 0 5.56027e+15 
315 25 0 5.5528e+15 
320 25 0 5.5528e+15 
0 35 0 7.57581e+15 
5 35 0 7.57581e+15 
15 35 0 7.5891e+15 
25 35 0 7.59738e+15 
35 35 0 7.59249e+15 
45 35 0 7.57175e+15 
55 35 0 7.53713e+15 
65 35 0 7.49014e+15 
75 35 0 7.42259e+15 
85 35 0 7.33613e+15 
95 35 0 7.25219e+15 
105 35 0 7.18754e+15 
115 35 0 7.1285e+15 
125 35 0 7.06245e+15 
135 35 0 6.95576e+15 
145 35 0 6.80335e+15 
155 35 0 6.63664e+15 
165 35 0 6.48856e+15 
175 35 0 6.37135e+15 
185 35 0 6.2714e+15 
195 35 0 6.17963e+15 
205 35 0 6.09501e+15 
215 35 0 6.01599e+15 
225 35 0 5.93723e+15 
235 35 0 5.85649e+15 
245 35 0 5.78066e+15 
255 35 0 5.71032e+15 
265 35 0 5.64571e+15 
275 35 0 5.59308e+15 
285 35 0 5.55796e+15 
295 35 0 5.53785e+15 
305 35 0 5.52612e+15 
315 35 0 5.52004e+15 
320 35 0 5.52004e+15 
0 45 0 7.43909e+15 
5 45 0 7.43909e+15 
15 45 0 7.44105e+15 
25 45 0 7.43535e+15 
35 45 0 7.41794e+15 
45 45 0 7.39217e+15 
55 45 0 7.35826e+15 
65 45 0 7.31112e+15 
75 45 0 7.24747e+15 
85 45 0 7.17638e+15 
95 45 0 7.11003e+15 
105 45 0 7.05207e+15 
115 45 0 6.98572e+15 
125 45 0 6.90665e+15 
135 45 0 6.80879e+15 
145 45 0 6.68636e+15 
155 45 0 6.55165e+15 
165 45 0 6.42683e+15 
175 45 0 6.32133e+15 
185 45 0 6.22633e+15 
195 45 0 6.13656e+15 
205 45 0 6.0511e+15 
215 45 0 5.96604e+15 
225 45 0 5.87401e+15 
235 45 0 5.77892e+15 
245 45 0 5.69458e+15 
255 45 0 5.62485e+15 
265 45 0 5.56936e+15 
275 45 0 5.53095e+15 
285 45 0 5.51032e+15 
295 45 0 5.49991e+15 
305 45 0 5.49238e+15 
315 45 0 5.48717e+15 
320 45 0 5.48717e+15 
0 55 0 7.34066e+15 
5 55 0 7.34066e+15 
15 55 0 7.33081e+15 
25 55 0 7.30879e+15 
35 55 0 7.27464e+15 
45 55 0 7.23452e+15 
55 55 0 7.19136e+15 
65 55 0 7.14351e+15 
75 55 0 7.09013e+15 
85 55 0 7.03591e+15 
95 55 0 6.98469e+15 
105 55 0 6.93277e+15 
115 55 0 6.86013e+15 
125 55 0 6.76938e+15 
135 55 0 6.68512e+15 
145 55 0 6.58683e+15 
155 55 0 6.47282e+15 
165 55 0 6.35999e+15 
175 55 0 6.25907e+15 
185 55 0 6.16636e+15 
195 55 0 6.07707e+15 
205 55 0 5.98767e+15 
215 55 0 5.89148e+15 
225 55 0 5.78353e+15 
235 55 0 5.67814e+15 
245 55 0 5.59274e+15 
255 55 0 5.53015e+15 
265 55 0 5.48752e+15 
275 55 0 5.46419e+15 
285 55 0 5.45726e+15 
295 55 0 5.45614e+15 
305 55 0 5.45328e+15 
315 55 0 5.44994e+15 
320 55 0 5.44994e+15 
0 65 0 7.25955e+15 
5 65 0 7.25955e+15 
15 65 0 7.24117e+15 
25 65 0 7.20628e+15 
35 65 0 7.1579e+15 
45 65 0 7.10348e+15 
55 65 0 7.05022e+15 
65 65 0 7.00202e+15 
75 65 0 6.95731e+15 
85 65 0 6.915e+15 
95 65 0 6.87403e+15 
105 65 0 6.82472e+15 
115 65 0 6.74307e+15 
125 65 0 6.64415e+15 
135 65 0 6.5711e+15 
145 65 0 6.48387e+15 
155 65 0 6.37776e+15 
165 65 0 6.26897e+15 
175 65 0 6.16955e+15 
185 65 0 6.07833e+15 
195 65 0 5.98787e+15 
205 65 0 5.89136e+15 
215 65 0 5.78275e+15 
225 65 0 5.66734e+15 
235 65 0 5.56649e+15 
245 65 0 5.4915e+15 
255 65 0 5.44077e+15 
265 65 0 5.40918e+15 
275 65 0 5.39414e+15 
285 65 0 5.39351e+15 
295 65 0 5.39821e+15 
305 65 0 5.40063e+15 
315 65 0 5.40064e+15 
320 65 0 5.40064e+15 
0 75 0 7.17452e+15 
5 75 0 7.17452e+15 
15 75 0 7.15106e+15 
25 75 0 7.10858e+15 
35 75 0 7.05277e+15 
45 75 0 6.99218e+15 
55 75 0 6.93605e+15 
65 75 0 6.89001e+15 
75 75 0 6.85114e+15 
85 75 0 6.8152e+15 
95 75 0 6.77787e+15 
105 75 0 6.72381e+15 
115 75 0 6.62837e+15 
125 75 0 6.52324e+15 
135 75 0 6.45491e+15 
145 75 0 6.36646e+15 
155 75 0 6.25808e+15 
165 75 0 6.14817e+15 
175 75 0 6.04884e+15 
185 75 0 5.95758e+15 
195 75 0 5.86192e+15 
205 75 0 5.7539e+15 
215 75 0 5.63751e+15 
225 75 0 5.53447e+15 
235 75 0 5.46068e+15 
245 75 0 5.40728e+15 
255 75 0 5.37004e+15 
265 75 0 5.34447e+15 
275 75 0 5.32811e+15 
285 75 0 5.32175e+15 
295 75 0 5.32278e+15 
305 75 0 5.32702e+15 
315 75 0 5.33014e+15 
320 75 0 5.33014e+15 
0 85 0 7.06876e+15 
5 85 0 7.06876e+15 
15 85 0 7.04422e+15 
25 85 0 7.00155e+15 
35 85 0 6.94749e+15 
45 85 0 6.88978e+15 
55 85 0 6.83771e+15 
65 85 0 6.79592e+15 
75 85 0 6.76071e+15 
85 85 0 6.72666e+15 
95 85 0 6.68545e+15 
105 85 0 6.61907e+15 
115 85 0 6.51086e+15 
125 85 0 6.40259e+15 
135 85 0 6.33325e+15 
145 85 0 6.23894e+15 
155 85 0 6.12651e+15 
165 85 0 6.01425e+15 
175 85 0 5.91227e+15 
185 85 0 5.81453e+15 
195 85 0 5.70449e+15 
205 85 0 5.57946e+15 
215 85 0 5.4648e+15 
225 85 0 5.3925e+15 
235 85 0 5.35892e+15 
245 85 0 5.3333e+15 
255 85 0 5.31014e+15 
265 85 0 5.28813e+15 
275 85 0 5.2659e+15 
285 85 0 5.24502e+15 
295 85 0 5.23163e+15 
305 85 0 5.22989e+15 
315 85 0 5.23296e+15 
320 85 0 5.23296e+15 
0 95 0 6.93366e+15 
5 95 0 6.93366e+15 
15 95 0 6.91322e+15 
25 95 0 6.87803e+15 
35 95 0 6.83259e+15 
45 95 0 6.78262e+15 
55 95 0 6.73764e+15 
65 95 0 6.70098e+15 
75 95 0 6.66873e+15 
85 95 0 6.63342e+15 
95 95 0 6.58288e+15 
105 95 0 6.50344e+15 
115 95 0 6.38986e+15 
125 95 0 6.28313e+15 
135 95 0 6.21162e+15 
145 95 0 6.11337e+15 
155 95 0 5.99993e+15 
165 95 0 5.88593e+15 
175 95 0 5.77824e+15 
185 95 0 5.66705e+15 
195 95 0 5.53578e+15 
205 95 0 5.39362e+15 
215 95 0 5.29029e+15 
225 95 0 5.25166e+15 
235 95 0 5.24694e+15 
245 95 0 5.2459e+15 
255 95 0 5.23755e+15 
265 95 0 5.21912e+15 
275 95 0 5.19041e+15 
285 95 0 5.15213e+15 
295 95 0 5.11801e+15 
305 95 0 5.10382e+15 
315 95 0 5.10394e+15 
320 95 0 5.10394e+15 
0 105 0 6.76263e+15 
5 105 0 6.76263e+15 
15 105 0 6.74968e+15 
25 105 0 6.72453e+15 
35 105 0 6.68992e+15 
45 105 0 6.65082e+15 
55 105 0 6.61614e+15 
65 105 0 6.58723e+15 
75 105 0 6.55932e+15 
85 105 0 6.52198e+15 
95 105 0 6.46241e+15 
105 105 0 6.3767e+15 
115 105 0 6.26665e+15 
125 105 0 6.16698e+15 
135 105 0 6.09183e+15 
145 105 0 5.99072e+15 
155 105 0 5.87755e+15 
165 105 0 5.76205e+15 
175 105 0 5.64688e+15 
185 105 0 5.51998e+15 
195 105 0 5.36988e+15 
205 105 0 5.21912e+15 
215 105 0 5.12974e+15 
225 105 0 5.11156e+15 
235 105 0 5.11372e+15 
245 105 0 5.12221e+15 
255 105 0 5.1251e+15 
265 105 0 5.11105e+15 
275 105 0 5.07602e+15 
285 105 0 5.02087e+15 
295 105 0 4.96751e+15 
305 105 0 4.94177e+15 
315 105 0 4.93986e+15 
320 105 0 4.93986e+15 
0 115 0 6.55229e+15 
5 115 0 6.55229e+15 
15 115 0 6.54607e+15 
25 115 0 6.52974e+15 
35 115 0 6.50702e+15 
45 115 0 6.48131e+15 
55 115 0 6.45836e+15 
65 115 0 6.43817e+15 
75 115 0 6.41635e+15 
85 115 0 6.38029e+15 
95 115 0 6.31913e+15 
105 115 0 6.23549e+15 
115 115 0 6.13338e+15 
125 115 0 6.04424e+15 
135 115 0 5.96032e+15 
145 115 0 5.85365e+15 
155 115 0 5.73961e+15 
165 115 0 5.62372e+15 
175 115 0 5.50315e+15 
185 115 0 5.36421e+15 
195 115 0 5.20428e+15 
205 115 0 5.05624e+15 
215 115 0 4.97817e+15 
225 115 0 4.96287e+15 
235 115 0 4.95915e+15 
245 115 0 4.96327e+15 
255 115 0 4.96721e+15 
265 115 0 4.95359e+15 
275 115 0 4.91059e+15 
285 115 0 4.84125e+15 
295 115 0 4.77641e+15 
305 115 0 4.7455e+15 
315 115 0 4.74396e+15 
320 115 0 4.74396e+15 
0 125 0 6.30989e+15 
5 125 0 6.30989e+15 
15 125 0 6.30615e+15 
25 125 0 6.29869e+15 
35 125 0 6.29152e+15 
45 125 0 6.28127e+15 
55 125 0 6.26838e+15 
65 125 0 6.25441e+15 
75 125 0 6.23843e+15 
85 125 0 6.20719e+15 
95 125 0 6.1505e+15 
105 125 0 6.06974e+15 
115 125 0 5.9724e+15 
125 125 0 5.89024e+15 
135 125 0 5.7929e+15 
145 125 0 5.68098e+15 
155 125 0 5.5695e+15 
165 125 0 5.45863e+15 
175 125 0 5.3373e+15 
185 125 0 5.19084e+15 
195 125 0 5.03032e+15 
205 125 0 4.89703e+15 
215 125 0 4.82947e+15 
225 125 0 4.80658e+15 
235 125 0 4.79223e+15 
245 125 0 4.78352e+15 
255 125 0 4.77488e+15 
265 125 0 4.75079e+15 
275 125 0 4.697e+15 
285 125 0 4.622e+15 
295 125 0 4.55919e+15 
305 125 0 4.52993e+15 
315 125 0 4.52569e+15 
320 125 0 4.52569e+15 
0 135 0 6.0589e+15 
5 135 0 6.0589e+15 
15 135 0 6.05658e+15 
25 135 0 6.05989e+15 
35 135 0 6.06953e+15 
45 135 0 6.07453e+15 
55 135 0 6.07089e+15 
65 135 0 6.06294e+15 
75 135 0 6.05107e+15 
85 135 0 6.0221e+15 
95 135 0 5.96488e+15 
105 135 0 5.87859e+15 
115 135 0 5.77858e+15 
125 135 0 5.69124e+15 
135 135 0 5.58463e+15 
145 135 0 5.4763e+15 
155 135 0 5.37502e+15 
165 135 0 5.2736e+15 
175 135 0 5.15418e+15 
185 135 0 5.00702e+15 
195 135 0 4.85826e+15 
205 135 0 4.74849e+15 
215 135 0 4.68984e+15 
225 135 0 4.65598e+15 
235 135 0 4.62336e+15 
245 135 0 4.5886e+15 
255 135 0 4.5509e+15 
265 135 0 4.50588e+15 
275 135 0 4.44642e+15 
285 135 0 4.38342e+15 
295 135 0 4.33662e+15 
305 135 0 4.30997e+15 
315 135 0 4.29449e+15 
320 135 0 4.29449e+15 
0 145 0 5.82775e+15 
5 145 0 5.82775e+15 
15 145 0 5.83233e+15 
25 145 0 5.84609e+15 
35 145 0 5.86464e+15 
45 145 0 5.87821e+15 
55 145 0 5.88339e+15 
65 145 0 5.88317e+15 
75 145 0 5.87291e+15 
85 145 0 5.83997e+15 
95 145 0 5.77481e+15 
105 145 0 5.67732e+15 
115 145 0 5.57317e+15 
125 145 0 5.47754e+15 
135 145 0 5.37374e+15 
145 145 0 5.27835e+15 
155 145 0 5.18949e+15 
165 145 0 5.09407e+15 
175 145 0 4.97584e+15 
185 145 0 4.8362e+15 
195 145 0 4.70744e+15 
205 145 0 4.6168e+15 
215 145 0 4.55924e+15 
225 145 0 4.50975e+15 
235 145 0 4.44955e+15 
245 145 0 4.3767e+15 
255 145 0 4.30073e+15 
265 145 0 4.23418e+15 
275 145 0 4.17981e+15 
285 145 0 4.14044e+15 
295 145 0 4.11255e+15 
305 145 0 4.08606e+15 
315 145 0 4.06054e+15 
320 145 0 4.06054e+15 
0 155 0 5.61643e+15 
5 155 0 5.61643e+15 
15 155 0 5.62382e+15 
25 155 0 5.63833e+15 
35 155 0 5.65637e+15 
45 155 0 5.67688e+15 
55 155 0 5.69565e+15 
65 155 0 5.70552e+15 
75 155 0 5.69554e+15 
85 155 0 5.65898e+15 
95 155 0 5.59694e+15 
105 155 0 5.49365e+15 
115 155 0 5.39196e+15 
125 155 0 5.29531e+15 
135 155 0 5.19936e+15 
145 155 0 5.11443e+15 
155 155 0 5.03177e+15 
165 155 0 4.93715e+15 
175 155 0 4.82063e+15 
185 155 0 4.69082e+15 
195 155 0 4.57513e+15 
205 155 0 4.48861e+15 
215 155 0 4.42214e+15 
225 155 0 4.35226e+15 
235 155 0 4.26192e+15 
245 155 0 4.15431e+15 
255 155 0 4.04951e+15 
265 155 0 3.96997e+15 
275 155 0 3.92285e+15 
285 155 0 3.90119e+15 
295 155 0 3.88621e+15 
305 155 0 3.86415e+15 
315 155 0 3.84288e+15 
320 155 0 3.84288e+15 
0 165 0 5.41904e+15 
5 165 0 5.41904e+15 
15 165 0 5.41906e+15 
25 165 0 5.42227e+15 
35 165 0 5.43506e+15 
45 165 0 5.46293e+15 
55 165 0 5.4948e+15 
65 165 0 5.51353e+15 
75 165 0 5.50674e+15 
85 165 0 5.4812e+15 
95 165 0 5.46842e+15 
105 165 0 5.34819e+15 
115 165 0 5.24882e+15 
125 165 0 5.15273e+15 
135 165 0 5.05614e+15 
145 165 0 4.96792e+15 
155 165 0 4.88144e+15 
165 165 0 4.78469e+15 
175 165 0 4.6703e+15 
185 165 0 4.54668e+15 
195 165 0 4.43548e+15 
205 165 0 4.34574e+15 
215 165 0 4.26783e+15 
225 165 0 4.17919e+15 
235 165 0 4.06784e+15 
245 165 0 3.94548e+15 
255 165 0 3.83494e+15 
265 165 0 3.75396e+15 
275 165 0 3.70731e+15 
285 165 0 3.68708e+15 
295 165 0 3.67556e+15 
305 165 0 3.66313e+15 
315 165 0 3.65436e+15 
320 165 0 3.65436e+15 
0 175 0 5.23879e+15 
5 175 0 5.23879e+15 
15 175 0 5.2295e+15 
25 175 0 5.22268e+15 
35 175 0 5.23251e+15 
45 175 0 5.26212e+15 
55 175 0 5.29778e+15 
65 175 0 5.32004e+15 
75 175 0 5.31752e+15 
85 175 0 5.29916e+15 
95 175 0 5.2678e+15 
105 175 0 5.22906e+15 
115 175 0 5.13209e+15 
125 175 0 5.031e+15 
135 175 0 4.92173e+15 
145 175 0 4.81915e+15 
155 175 0 4.7218e+15 
165 175 0 4.62033e+15 
175 175 0 4.50573e+15 
185 175 0 4.38388e+15 
195 175 0 4.27408e+15 
205 175 0 4.18145e+15 
215 175 0 4.09547e+15 
225 175 0 3.995e+15 
235 175 0 3.87956e+15 
245 175 0 3.76615e+15 
255 175 0 3.67111e+15 
265 175 0 3.59982e+15 
275 175 0 3.55016e+15 
285 175 0 3.51652e+15 
295 175 0 3.49346e+15 
305 175 0 3.48177e+15 
315 175 0 3.47972e+15 
320 175 0 3.47972e+15 
0 185 0 5.07176e+15 
5 185 0 5.07176e+15 
15 185 0 5.05689e+15 
25 185 0 5.04694e+15 
35 185 0 5.05755e+15 
45 185 0 5.08803e+15 
55 185 0 5.12751e+15 
65 185 0 5.15526e+15 
75 185 0 5.15893e+15 
85 185 0 5.13419e+15 
95 185 0 5.07337e+15 
105 185 0 5.08182e+15 
115 185 0 5.03134e+15 
125 185 0 4.91383e+15 
135 185 0 4.7928e+15 
145 185 0 4.68326e+15 
155 185 0 4.57785e+15 
165 185 0 4.46762e+15 
175 185 0 4.34148e+15 
185 185 0 4.20739e+15 
195 185 0 4.09396e+15 
205 185 0 3.99748e+15 
215 185 0 3.90289e+15 
225 185 0 3.79549e+15 
235 185 0 3.69144e+15 
245 185 0 3.60178e+15 
255 185 0 3.53149e+15 
265 185 0 3.47513e+15 
275 185 0 3.42513e+15 
285 185 0 3.37584e+15 
295 185 0 3.32932e+15 
305 185 0 3.29838e+15 
315 185 0 3.28907e+15 
320 185 0 3.28907e+15 
0 195 0 4.90737e+15 
5 195 0 4.90737e+15 
15 195 0 4.89344e+15 
25 195 0 4.88686e+15 
35 195 0 4.90086e+15 
45 195 0 4.93615e+15 
55 195 0 4.99366e+15 
65 195 0 5.03601e+15 
75 195 0 5.0539e+15 
85 195 0 5.04685e+15 
95 195 0 5.02198e+15 
105 195 0 4.9944e+15 
115 195 0 4.93929e+15 
125 195 0 4.7882e+15 
135 195 0 4.68034e+15 
145 195 0 4.58082e+15 
155 195 0 4.47415e+15 
165 195 0 4.35119e+15 
175 195 0 4.19214e+15 
185 195 0 4.00214e+15 
195 195 0 3.87425e+15 
205 195 0 3.7712e+15 
215 195 0 3.66148e+15 
225 195 0 3.54539e+15 
235 195 0 3.46295e+15 
245 195 0 3.40387e+15 
255 195 0 3.36039e+15 
265 195 0 3.31885e+15 
275 195 0 3.26894e+15 
285 195 0 3.20543e+15 
295 195 0 3.13499e+15 
305 195 0 3.07769e+15 
315 195 0 3.05322e+15 
320 195 0 3.05322e+15 
0 205 0 4.73999e+15 
5 205 0 4.73999e+15 
15 205 0 4.73372e+15 
25 205 0 4.73224e+15 
35 205 0 4.74519e+15 
45 205 0 4.78402e+15 
55 205 0 4.90239e+15 
65 205 0 4.96545e+15 
75 205 0 4.9938e+15 
85 205 0 4.99833e+15 
95 205 0 4.98772e+15 
105 205 0 4.96853e+15 
115 205 0 4.94254e+15 
125 205 0 4.65975e+15 
135 205 0 4.58906e+15 
145 205 0 4.51801e+15 
155 205 0 4.41333e+15 
165 205 0 4.27696e+15 
175 205 0 4.06584e+15 
185 205 0 3.68847e+15 
195 205 0 3.54371e+15 
205 205 0 3.4422e+15 
215 205 0 3.31941e+15 
225 205 0 3.20071e+15 
235 205 0 3.14358e+15 
245 205 0 3.11247e+15 
255 205 0 3.09203e+15 
265 205 0 3.06183e+15 
275 205 0 3.01039e+15 
285 205 0 2.9367e+15 
295 205 0 2.85428e+15 
305 205 0 2.78875e+15 
315 205 0 2.76196e+15 
320 205 0 2.76196e+15 
0 215 0 4.57131e+15 
5 215 0 4.57131e+15 
15 215 0 4.57472e+15 
25 215 0 4.57304e+15 
35 215 0 4.56698e+15 
45 215 0 4.55919e+15 
55 215 0 4.57008e+15 
65 215 0 4.52254e+15 
75 215 0 4.49275e+15 
85 215 0 4.49051e+15 
95 215 0 4.49409e+15 
105 215 0 4.46709e+15 
115 215 0 4.36918e+15 
125 215 0 4.02336e+15 
135 215 0 3.85665e+15 
145 215 0 4.30048e+15 
155 215 0 3.91455e+15 
165 215 0 3.62654e+15 
175 215 0 3.34089e+15 
185 215 0 3.04332e+15 
195 215 0 3.01771e+15 
205 215 0 2.96756e+15 
215 215 0 2.87061e+15 
225 215 0 2.78532e+15 
235 215 0 2.75513e+15 
245 215 0 2.74674e+15 
255 215 0 2.74344e+15 
265 215 0 2.72192e+15 
275 215 0 2.66957e+15 
285 215 0 2.59178e+15 
295 215 0 2.51162e+15 
305 215 0 2.45653e+15 
315 215 0 2.43974e+15 
320 215 0 2.43974e+15 
0 225 0 4.40333e+15 
5 225 0 4.40333e+15 
15 225 0 4.4145e+15 
25 225 0 4.40799e+15 
35 225 0 4.37277e+15 
45 225 0 4.31305e+15 
55 225 0 4.01039e+15 
65 225 0 3.7491e+15 
75 225 0 3.62882e+15 
85 225 0 3.5654e+15 
95 225 0 3.50667e+15 
105 225 0 3.40663e+15 
115 225 0 3.24851e+15 
125 225 0 2.96894e+15 
135 225 0 2.52009e+15 
145 225 0 2.91332e+15 
155 225 0 2.75122e+15 
165 225 0 2.31408e+15 
175 225 0 2.21092e+15 
185 225 0 2.33672e+15 
195 225 0 2.35711e+15 
205 225 0 2.38155e+15 
215 225 0 2.37185e+15 
225 225 0 2.36306e+15 
235 225 0 2.36225e+15 
245 225 0 2.38211e+15 
255 225 0 2.39982e+15 
265 225 0 2.38752e+15 
275 225 0 2.33482e+15 
285 225 0 2.25588e+15 
295 225 0 2.18191e+15 
305 225 0 2.1376e+15 
315 225 0 2.12674e+15 
320 225 0 2.12674e+15 
0 235 0 4.23621e+15 
5 235 0 4.23621e+15 
15 235 0 4.24905e+15 
25 235 0 4.23157e+15 
35 235 0 4.14583e+15 
45 235 0 3.94965e+15 
55 235 0 3.57973e+15 
65 235 0 3.37296e+15 
75 235 0 3.24679e+15 
85 235 0 3.13787e+15 
95 235 0 3.00191e+15 
105 235 0 2.82184e+15 
115 235 0 2.6366e+15 
125 235 0 2.45106e+15 
135 235 0 2.25412e+15 
145 235 0 2.09323e+15 
155 235 0 1.8745e+15 
165 235 0 1.46251e+15 
175 235 0 1.45576e+15 
185 235 0 1.61469e+15 
195 235 0 1.64498e+15 
205 235 0 1.77811e+15 
215 235 0 1.89203e+15 
225 235 0 1.95595e+15 
235 235 0 1.97291e+15 
245 235 0 2.03061e+15 
255 235 0 2.07887e+15 
265 235 0 2.08105e+15 
275 235 0 2.0314e+15 
285 235 0 1.95752e+15 
295 235 0 1.89483e+15 
305 235 0 1.85985e+15 
315 235 0 1.84852e+15 
320 235 0 1.84852e+15 
0 245 0 4.07746e+15 
5 245 0 4.07746e+15 
15 245 0 4.08552e+15 
25 245 0 4.06106e+15 
35 245 0 3.96035e+15 
45 245 0 3.76488e+15 
55 245 0 3.50795e+15 
65 245 0 3.32985e+15 
75 245 0 3.21376e+15 
85 245 0 3.10581e+15 
95 245 0 2.96296e+15 
105 245 0 2.77394e+15 
115 245 0 2.58519e+15 
125 245 0 2.40214e+15 
135 245 0 2.17923e+15 
145 245 0 1.90883e+15 
155 245 0 1.5742e+15 
165 245 0 1.37317e+15 
175 245 0 1.23802e+15 
185 245 0 1.12178e+15 
195 245 0 9.30936e+14 
205 245 0 1.2214e+15 
215 245 0 1.45549e+15 
225 245 0 1.54785e+15 
235 245 0 1.51885e+15 
245 245 0 1.65877e+15 
255 245 0 1.75332e+15 
265 245 0 1.77667e+15 
275 245 0 1.74235e+15 
285 245 0 1.68979e+15 
295 245 0 1.64916e+15 
305 245 0 1.62543e+15 
315 245 0 1.61218e+15 
320 245 0 1.61218e+15 
0 255 0 3.9361e+15 
5 255 0 3.9361e+15 
15 255 0 3.93404e+15 
25 255 0 3.9013e+15 
35 255 0 3.80074e+15 
45 255 0 3.62856e+15 
55 255 0 3.42661e+15 
65 255 0 3.27149e+15 
75 255 0 3.15988e+15 
85 255 0 3.04771e+15 
95 255 0 2.89903e+15 
105 255 0 2.7127e+15 
115 255 0 2.52963e+15 
125 255 0 2.3427e+15 
135 255 0 2.09394e+15 
145 255 0 1.77877e+15 
155 255 0 1.46447e+15 
165 255 0 1.22497e+15 
175 255 0 1.00889e+15 
185 255 0 7.31496e+14 
195 255 0 -5.79987e+13 
205 255 0 7.26581e+14 
215 255 0 1.06605e+15 
225 255 0 1.10867e+15 
235 255 0 6.85118e+14 
245 255 0 1.23549e+15 
255 255 0 1.43061e+15 
265 255 0 1.48054e+15 
275 255 0 1.46997e+15 
285 255 0 1.44943e+15 
295 255 0 1.43514e+15 
305 255 0 1.42317e+15 
315 255 0 1.4097e+15 
320 255 0 1.4097e+15 
0 265 0 3.81276e+15 
5 265 0 3.81276e+15 
15 265 0 3.79882e+15 
25 265 0 3.75355e+15 
35 265 0 3.65204e+15 
45 265 0 3.49992e+15 
55 265 0 3.33389e+15 
65 265 0 3.19679e+15 
75 265 0 3.08673e+15 
85 265 0 2.97146e+15 
95 265 0 2.82609e+15 
105 265 0 2.6539e+15 
115 265 0 2.47873e+15 
125 265 0 2.27356e+15 
135 265 0 1.98912e+15 
145 265 0 1.64473e+15 
155 265 0 1.33482e+15 
165 265 0 1.10695e+15 
175 265 0 9.28823e+14 
185 265 0 7.54856e+14 
195 265 0 5.46773e+14 
205 265 0 6.99225e+14 
215 265 0 8.69349e+14 
225 265 0 9.34061e+14 
235 265 0 8.74126e+14 
245 265 0 1.0581e+15 
255 265 0 1.17646e+15 
265 265 0 1.21714e+15 
275 265 0 1.22383e+15 
285 265 0 1.23075e+15 
295 265 0 1.23973e+15 
305 265 0 1.23972e+15 
315 265 0 1.22809e+15 
320 265 0 1.22809e+15 
0 275 0 3.70541e+15 
5 275 0 3.70541e+15 
15 275 0 3.68078e+15 
25 275 0 3.62423e+15 
35 275 0 3.52281e+15 
45 275 0 3.38585e+15 
55 275 0 3.24233e+15 
65 275 0 3.11755e+15 
75 275 0 3.0105e+15 
85 275 0 2.89936e+15 
95 275 0 2.76483e+15 
105 275 0 2.60404e+15 
115 275 0 2.43103e+15 
125 275 0 2.18623e+15 
135 275 0 1.84207e+15 
145 275 0 1.4729e+15 
155 275 0 1.17632e+15 
165 275 0 9.74604e+14 
175 275 0 8.34899e+14 
185 275 0 7.22358e+14 
195 275 0 6.33427e+14 
205 275 0 6.53844e+14 
215 275 0 7.24149e+14 
225 275 0 7.81193e+14 
235 275 0 7.9971e+14 
245 275 0 8.74396e+14 
255 275 0 9.43023e+14 
265 275 0 9.81089e+14 
275 275 0 1.00226e+15 
285 275 0 1.02605e+15 
295 275 0 1.05047e+15 
305 275 0 1.05951e+15 
315 275 0 1.04856e+15 
320 275 0 1.04856e+15 
0 285 0 3.61181e+15 
5 285 0 3.61181e+15 
15 285 0 3.57849e+15 
25 285 0 3.51728e+15 
35 285 0 3.42443e+15 
45 285 0 3.30292e+15 
55 285 0 3.17329e+15 
65 285 0 3.05753e+15 
75 285 0 2.9563e+15 
85 285 0 2.85131e+15 
95 285 0 2.72154e+15 
105 285 0 2.55793e+15 
115 285 0 2.38236e+15 
125 285 0 2.07523e+15 
135 285 0 1.65139e+15 
145 285 0 1.26863e+15 
155 285 0 9.94338e+14 
165 285 0 8.19517e+14 
175 285 0 7.08451e+14 
185 285 0 6.28213e+14 
195 285 0 5.70704e+14 
205 285 0 5.55609e+14 
215 285 0 5.75076e+14 
225 285 0 6.14799e+14 
235 285 0 6.40622e+14 
245 285 0 6.79914e+14 
255 285 0 7.24581e+14 
265 285 0 7.61185e+14 
275 285 0 7.89052e+14 
285 285 0 8.16332e+14 
295 285 0 8.43025e+14 
305 285 0 8.54435e+14 
315 285 0 8.45175e+14 
320 285 0 8.45175e+14 
0 295 0 3.53425e+15 
5 295 0 3.53425e+15 
15 295 0 3.49804e+15 
25 295 0 3.44238e+15 
35 295 0 3.3668e+15 
45 295 0 3.26334e+15 
55 295 0 3.14386e+15 
65 295 0 3.03283e+15 
75 295 0 2.9331e+15 
85 295 0 2.82694e+15 
95 295 0 2.69015e+15 
105 295 0 2.5106e+15 
115 295 0 2.31528e+15 
125 295 0 1.93215e+15 
135 295 0 1.44842e+15 
145 295 0 1.06911e+15 
155 295 0 8.1441e+14 
165 295 0 6.5414e+14 
175 295 0 5.60201e+14 
185 295 0 4.97139e+14 
195 295 0 4.50129e+14 
205 295 0 4.21688e+14 
215 295 0 4.16162e+14 
225 295 0 4.38251e+14 
235 295 0 4.64174e+14 
245 295 0 4.93043e+14 
255 295 0 5.26822e+14 
265 295 0 5.59753e+14 
275 295 0 5.84672e+14 
285 295 0 6.02957e+14 
295 295 0 6.16742e+14 
305 295 0 6.24581e+14 
315 295 0 6.25429e+14 
320 295 0 6.25429e+14 
0 305 0 3.47939e+15 
5 305 0 3.47939e+15 
15 305 0 3.44725e+15 
25 305 0 3.40385e+15 
35 305 0 3.34514e+15 
45 305 0 3.25928e+15 
55 305 0 3.1501e+15 
65 305 0 3.03607e+15 
75 305 0 2.92791e+15 
85 305 0 2.81376e+15 
95 305 0 2.66404e+15 
105 305 0 2.45644e+15 
115 305 0 2.19698e+15 
125 305 0 1.73009e+15 
135 305 0 1.26591e+15 
145 305 0 9.12366e+14 
155 305 0 6.54416e+14 
165 305 0 4.74282e+14 
175 305 0 3.98648e+14 
185 305 0 3.49924e+14 
195 305 0 3.06708e+14 
205 305 0 2.7188e+14 
215 305 0 2.60603e+14 
225 305 0 2.76255e+14 
235 305 0 3.00446e+14 
245 305 0 3.21171e+14 
255 305 0 3.4704e+14 
265 305 0 3.82762e+14 
275 305 0 4.17529e+14 
285 305 0 4.35264e+14 
295 305 0 4.32183e+14 
305 305 0 4.1825e+14 
315 305 0 4.11618e+14 
320 305 0 4.11618e+14 
0 315 0 3.45481e+15 
5 315 0 3.45481e+15 
15 315 0 3.42781e+15 
25 315 0 3.39101e+15 
35 315 0 3.33865e+15 
45 315 0 3.25936e+15 
55 315 0 3.15524e+15 
65 315 0 3.04191e+15 
75 315 0 2.93124e+15 
85 315 0 2.81262e+15 
95 315 0 2.64989e+15 
105 315 0 2.40376e+15 
115 315 0 2.0139e+15 
125 315 0 1.47983e+15 
135 315 0 1.13271e+15 
145 315 0 8.32784e+14 
155 315 0 5.51318e+14 
165 315 0 2.27901e+14 
175 315 0 1.53743e+14 
185 315 0 1.29263e+14 
195 315 0 1.10324e+14 
205 315 0 9.23781e+13 
215 315 0 8.57354e+13 
225 315 0 9.32656e+13 
235 315 0 1.05924e+14 
245 315 0 1.10722e+14 
255 315 0 1.14648e+14 
265 315 0 1.29936e+14 
275 315 0 1.51704e+14 
285 315 0 1.62308e+14 
295 315 0 1.58487e+14 
305 315 0 1.46695e+14 
315 315 0 1.43875e+14 
320 315 0 1.43875e+14 
0 320 0 3.45481e+15 
5 320 0 3.45481e+15 
15 320 0 3.42781e+15 
25 320 0 3.39101e+15 
35 320 0 3.33865e+15 
45 320 0 3.25936e+15 
55 320 0 3.15524e+15 
65 320 0 3.04191e+15 
75 320 0 2.93124e+15 
85 320 0 2.81262e+15 
95 320 0 2.64989e+15 
105 320 0 2.40376e+15 
115 320 0 2.0139e+15 
125 320 0 1.47983e+15 
135 320 0 1.13271e+15 
145 320 0 8.32784e+14 
155 320 0 5.51318e+14 
165 320 0 2.27901e+14 
175 320 0 1.53743e+14 
185 320 0 1.29263e+14 
195 320 0 1.10324e+14 
205 320 0 9.23781e+13 
215 320 0 8.57354e+13 
225 320 0 9.32656e+13 
235 320 0 1.05924e+14 
245 320 0 1.10722e+14 
255 320 0 1.14648e+14 
265 320 0 1.29936e+14 
275 320 0 1.51704e+14 
285 320 0 1.62308e+14 
295 320 0 1.58487e+14 
305 320 0 1.46695e+14 
315 320 0 1.43875e+14 
320 320 0 1.43875e+14 
0 0 2 8.21294e+15 
5 0 2 8.21294e+15 
15 0 2 8.22108e+15 
25 0 2 8.25458e+15 
35 0 2 8.29145e+15 
45 0 2 8.27097e+15 
55 0 2 8.20614e+15 
65 0 2 8.1501e+15 
75 0 2 8.14654e+15 
85 0 2 8.18577e+15 
95 0 2 8.17803e+15 
105 0 2 8.02884e+15 
115 0 2 7.82117e+15 
125 0 2 7.63864e+15 
135 0 2 7.50636e+15 
145 0 2 7.32702e+15 
155 0 2 7.09359e+15 
165 0 2 6.78568e+15 
175 0 2 6.56219e+15 
185 0 2 6.39961e+15 
195 0 2 6.27556e+15 
205 0 2 6.1772e+15 
215 0 2 6.09454e+15 
225 0 2 6.01911e+15 
235 0 2 5.94913e+15 
245 0 2 5.88499e+15 
255 0 2 5.82502e+15 
265 0 2 5.76797e+15 
275 0 2 5.71579e+15 
285 0 2 5.67212e+15 
295 0 2 5.63836e+15 
305 0 2 5.61513e+15 
315 0 2 5.6035e+15 
320 0 2 5.6035e+15 
0 5 2 8.21294e+15 
5 5 2 8.21294e+15 
15 5 2 8.22108e+15 
25 5 2 8.25458e+15 
35 5 2 8.29145e+15 
45 5 2 8.27097e+15 
55 5 2 8.20614e+15 
65 5 2 8.1501e+15 
75 5 2 8.14654e+15 
85 5 2 8.18577e+15 
95 5 2 8.17803e+15 
105 5 2 8.02884e+15 
115 5 2 7.82117e+15 
125 5 2 7.63864e+15 
135 5 2 7.50636e+15 
145 5 2 7.32702e+15 
155 5 2 7.09359e+15 
165 5 2 6.78568e+15 
175 5 2 6.56219e+15 
185 5 2 6.39961e+15 
195 5 2 6.27556e+15 
205 5 2 6.1772e+15 
215 5 2 6.09454e+15 
225 5 2 6.01911e+15 
235 5 2 5.94913e+15 
245 5 2 5.88499e+15 
255 5 2 5.82502e+15 
265 5 2 5.76797e+15 
275 5 2 5.71579e+15 
285 5 2 5.67212e+15 
295 5 2 5.63836e+15 
305 5 2 5.61513e+15 
315 5 2 5.6035e+15 
320 5 2 5.6035e+15 
0 15 2 7.98239e+15 
5 15 2 7.98239e+15 
15 15 2 7.99535e+15 
25 15 2 8.01111e+15 
35 15 2 8.01757e+15 
45 15 2 7.99544e+15 
55 15 2 7.94925e+15 
65 15 2 7.90329e+15 
75 15 2 7.86844e+15 
85 15 2 7.82573e+15 
95 15 2 7.75104e+15 
105 15 2 7.65419e+15 
115 15 2 7.55186e+15 
125 15 2 7.4335e+15 
135 15 2 7.32089e+15 
145 15 2 7.14074e+15 
155 15 2 6.91374e+15 
165 15 2 6.68069e+15 
175 15 2 6.49993e+15 
185 15 2 6.36334e+15 
195 15 2 6.25278e+15 
205 15 2 6.15979e+15 
215 15 2 6.07881e+15 
225 15 2 6.00494e+15 
235 15 2 5.93663e+15 
245 15 2 5.87352e+15 
255 15 2 5.81235e+15 
265 15 2 5.75107e+15 
275 15 2 5.69399e+15 
285 15 2 5.64771e+15 
295 15 2 5.61449e+15 
305 15 2 5.59347e+15 
315 15 2 5.5837e+15 
320 15 2 5.5837e+15 
0 25 2 7.76171e+15 
5 25 2 7.76171e+15 
15 25 2 7.77914e+15 
25 25 2 7.79319e+15 
35 25 2 7.79384e+15 
45 25 2 7.77106e+15 
55 25 2 7.72839e+15 
65 25 2 7.68075e+15 
75 25 2 7.62305e+15 
85 25 2 7.54062e+15 
95 25 2 7.44592e+15 
105 25 2 7.37139e+15 
115 25 2 7.31083e+15 
125 25 2 7.23873e+15 
135 25 2 7.12945e+15 
145 25 2 6.95533e+15 
155 25 2 6.75382e+15 
165 25 2 6.56952e+15 
175 25 2 6.42802e+15 
185 25 2 6.31546e+15 
195 25 2 6.21753e+15 
205 25 2 6.13033e+15 
215 25 2 6.05201e+15 
225 25 2 5.97904e+15 
235 25 2 5.9082e+15 
245 25 2 5.84133e+15 
255 25 2 5.77557e+15 
265 25 2 5.70959e+15 
275 25 2 5.65029e+15 
285 25 2 5.60558e+15 
295 25 2 5.57685e+15 
305 25 2 5.56027e+15 
315 25 2 5.5528e+15 
320 25 2 5.5528e+15 
0 35 2 7.57581e+15 
5 35 2 7.57581e+15 
15 35 2 7.5891e+15 
25 35 2 7.59738e+15 
35 35 2 7.59249e+15 
45 35 2 7.57175e+15 
55 35 2 7.53713e+15 
65 35 2 7.49014e+15 
75 35 2 7.42259e+15 
85 35 2 7.33613e+15 
95 35 2 7.25219e+15 
105 35 2 7.18754e+15 
115 35 2 7.1285e+15 
125 35 2 7.06245e+15 
135 35 2 6.95576e+15 
145 35 2 6.80335e+15 
155 35 2 6.63664e+15 
165 35 2 6.48856e+15 
175 35 2 6.37135e+15 
185 35 2 6.2714e+15 
195 35 2 6.17963e+15 
205 35 2 6.09501e+15 
215 35 2 6.01599e+15 
225 35 2 5.93723e+15 
235 35 2 5.85649e+15 
245 35 2 5.78066e+15 
255 35 2 5.71032e+15 
265 35 2 5.64571e+15 
275 35 2 5.59308e+15 
285 35 2 5.55796e+15 
295 35 2 5.53785e+15 
305 35 2 5.52612e+15 
315 35 2 5.52004e+15 
320 35 2 5.52004e+15 
0 45 2 7.43909e+15 
5 45 2 7.43909e+15 
15 45 2 7.44105e+15 
25 45 2 7.43535e+15 
35 45 2 7.41794e+15 
45 45 2 7.39217e+15 
55 45 2 7.35826e+15 
65 45 2 7.31112e+15 
75 45 2 7.24747e+15 
85 45 2 7.17638e+15 
95 45 2 7.11003e+15 
105 45 2 7.05207e+15 
115 45 2 6.98572e+15 
125 45 2 6.90665e+15 
135 45 2 6.80879e+15 
145 45 2 6.68636e+15 
155 45 2 6.55165e+15 
165 45 2 6.42683e+15 
175 45 2 6.32133e+15 
185 45 2 6.22633e+15 
195 45 2 6.13656e+15 
205 45 2 6.0511e+15 
215 45 2 5.96604e+15 
225 45 2 5.87401e+15 
235 45 2 5.77892e+15 
245 45 2 5.69458e+15 
255 45 2 5.62485e+15 
265 45 2 5.56936e+15 
275 45 2 5.53095e+15 
285 45 2 5.51032e+15 