TITLE= "velocity"
VARIABLES= "X", "Y", "Z", "x-velocity", "y-velocity", "z-velocity"
ZONE T="Rectangular zone"
 I=34, J=34, K=18, F=POINT
DT=(SINGLE SINGLE SINGLE SINGLE SINGLE SINGLE)
0 0 0 -1.49067e-05 0.00107656 -2.46606e-05 
5 0 0 -2.236e-05 0.00105742 -1.84955e-05 
15 0 0 -9.89991e-05 0.00106193 -1.3918e-05 
25 0 0 -0.000130249 0.000983637 1.9395e-06 
35 0 0 -3.11562e-05 0.000909823 2.08579e-05 
45 0 0 0.000100012 0.000895282 3.08662e-05 
55 0 0 0.000170225 0.000937792 2.18615e-05 
65 0 0 9.92386e-05 0.00100145 1.66381e-05 
75 0 0 -4.65331e-05 0.000988647 1.64767e-05 
85 0 0 -4.56099e-05 0.000939363 1.21345e-05 
95 0 0 0.000153563 0.000908462 8.90064e-06 
105 0 0 0.000464976 0.000916998 -1.36734e-06 
115 0 0 0.000818293 0.000962867 -2.12423e-05 
125 0 0 0.000932004 0.00108907 -2.22755e-05 
135 0 0 0.000956485 0.00103453 -3.20617e-05 
145 0 0 0.00101344 0.000984978 1.28667e-05 
155 0 0 0.000902276 0.000907792 5.22585e-05 
165 0 0 0.000623887 6.3788e-05 1.47876e-05 
175 0 0 0.000342591 3.10503e-05 3.53617e-06 
185 0 0 0.000234218 1.76202e-05 -1.32969e-06 
195 0 0 0.000193843 1.2338e-05 -2.57876e-06 
205 0 0 0.00017048 1.03901e-05 -1.8398e-06 
215 0 0 0.000144035 8.84295e-06 -5.6442e-07 
225 0 0 0.000114926 6.45015e-06 2.68856e-07 
235 0 0 9.12316e-05 4.62112e-06 4.15874e-08 
245 0 0 7.84912e-05 3.5703e-06 -7.70057e-07 
255 0 0 7.66377e-05 3.65762e-06 -1.75042e-06 
265 0 0 8.04973e-05 5.17482e-06 -2.55447e-06 
275 0 0 8.20272e-05 8.34073e-06 -3.15775e-06 
285 0 0 7.64072e-05 1.23227e-05 -3.9836e-06 
295 0 0 6.50684e-05 1.51314e-05 -4.73028e-06 
305 0 0 4.82413e-05 1.75273e-05 -4.96779e-06 
315 0 0 1.90128e-05 2.07379e-05 -4.4926e-06 
320 0 0 1.26752e-05 2.76506e-05 -5.99013e-06 
0 5 0 -1.118e-05 0.00111484 -1.84955e-05 
5 5 0 -2.236e-05 0.00111484 -0 
15 5 0 -9.89991e-05 0.00112387 -0 
25 5 0 -0.000130249 0.000967273 -0 
35 5 0 -3.11562e-05 0.000819647 -0 
45 5 0 0.000100012 0.000790565 -0 
55 5 0 0.000170225 0.000875584 -0 
65 5 0 9.92386e-05 0.0010029 -0 
75 5 0 -4.65331e-05 0.000977294 -0 
85 5 0 -4.56099e-05 0.000878727 -0 
95 5 0 0.000153563 0.000816924 -0 
105 5 0 0.000464976 0.000833997 -0 
115 5 0 0.000818293 0.000925734 -0 
125 5 0 0.000932004 0.00117814 -0 
135 5 0 0.000956485 0.00106906 -0 
145 5 0 0.00101344 0.000969956 -0 
155 5 0 0.000902276 0.000815583 -0 
165 5 0 0.000623887 0.000127576 -0 
175 5 0 0.000342591 6.21007e-05 -0 
185 5 0 0.000234218 3.52404e-05 -0 
195 5 0 0.000193843 2.46761e-05 -0 
205 5 0 0.00017048 2.07803e-05 -0 
215 5 0 0.000144035 1.76859e-05 -0 
225 5 0 0.000114926 1.29003e-05 -0 
235 5 0 9.12316e-05 9.24223e-06 -0 
245 5 0 7.84912e-05 7.14059e-06 -0 
255 5 0 7.66377e-05 7.31524e-06 -0 
265 5 0 8.04973e-05 1.03496e-05 -0 
275 5 0 8.20272e-05 1.66815e-05 -0 
285 5 0 7.64072e-05 2.46454e-05 -0 
295 5 0 6.50684e-05 3.02628e-05 -0 
305 5 0 4.82413e-05 3.50546e-05 -0 
315 5 0 1.90128e-05 4.14758e-05 -0 
320 5 0 9.50642e-06 4.14758e-05 -4.4926e-06 
0 15 0 -1.73902e-05 0.00119779 1.33331e-05 
5 15 0 -3.47804e-05 0.00119779 -0 
15 15 0 -7.01264e-05 0.00118164 -0 
25 15 0 -4.47088e-05 0.000864601 -0 
35 15 0 1.54192e-05 0.000579012 -0 
45 15 0 8.27847e-05 0.000542083 -0 
55 15 0 0.000138615 0.000732845 -0 
65 15 0 0.000146179 0.00100679 -0 
75 15 0 0.000119319 0.000927699 -0 
85 15 0 0.00011279 0.000684422 -0 
95 15 0 0.000125947 0.000527924 -0 
105 15 0 0.000159671 0.000536162 -0 
115 15 0 0.00030055 0.00066367 -0 
125 15 0 0.000556813 0.00124116 -0 
135 15 0 0.00082313 0.00108227 -0 
145 15 0 0.000937841 0.000928215 -0 
155 15 0 0.00082409 0.000646009 -0 
165 15 0 0.000595931 0.00032715 -0 
175 15 0 0.000407524 0.000188158 -0 
185 15 0 0.000320213 0.000123808 -0 
195 15 0 0.000284996 9.67403e-05 -0 
205 15 0 0.000254727 8.44349e-05 -0 
215 15 0 0.000208093 6.78432e-05 -0 
225 15 0 0.000154478 4.82407e-05 -0 
235 15 0 0.000109749 3.65301e-05 -0 
245 15 0 8.04538e-05 2.82186e-05 -0 
255 15 0 6.72932e-05 2.54372e-05 -0 
265 15 0 6.61533e-05 3.0333e-05 -0 
275 15 0 7.18488e-05 4.61449e-05 -0 
285 15 0 7.75701e-05 7.24067e-05 -0 
295 15 0 7.40545e-05 9.61397e-05 -0 
305 15 0 5.45948e-05 0.000112112 -0 
315 15 0 2.02105e-05 0.000123013 -0 
320 15 0 1.01053e-05 0.000123013 -3.97018e-06 
0 25 0 -2.21528e-05 0.00109924 2.21945e-05 
5 25 0 -4.43056e-05 0.00109924 -0 
15 25 0 -7.29596e-05 0.00102039 -0 
25 25 0 -2.95468e-05 0.000738688 -0 
35 25 0 2.55412e-05 0.000498729 -0 
45 25 0 8.62049e-05 0.00049639 -0 
55 25 0 0.000157036 0.000704268 -0 
65 25 0 0.000224107 0.000990233 -0 
75 25 0 0.000247551 0.000877843 -0 
85 25 0 0.000205741 0.000573871 -0 
95 25 0 0.000138374 0.000377253 -0 
105 25 0 9.96115e-05 0.000346012 -0 
115 25 0 0.000137614 0.000387415 -0 
125 25 0 0.000367103 0.000932171 -0 
135 25 0 0.00071365 0.000908908 -0 
145 25 0 0.000942817 0.000853872 -0 
155 25 0 0.000972379 0.000656845 -0 
165 25 0 0.00086032 0.00046003 -0 
175 25 0 0.000748397 0.000343156 -0 
185 25 0 0.000700369 0.000283847 -0 
195 25 0 0.000665543 0.000255089 -0 
205 25 0 0.00057256 0.000232519 -0 
215 25 0 0.000415045 0.000181571 -0 
225 25 0 0.000262454 0.00013071 -0 
235 25 0 0.000156052 9.8142e-05 -0 
245 25 0 9.30438e-05 6.93235e-05 -0 
255 25 0 6.62098e-05 5.23682e-05 -0 
265 25 0 6.15411e-05 5.18742e-05 -0 
275 25 0 7.0665e-05 7.28679e-05 -0 
285 25 0 8.56895e-05 0.000119666 -0 
295 25 0 8.89909e-05 0.000171441 -0 
305 25 0 6.53061e-05 0.00020088 -0 
315 25 0 2.29267e-05 0.00020009 -0 
320 25 0 1.14634e-05 0.00020009 -2.81775e-06 
0 35 0 -1.76088e-05 0.000948308 2.3896e-05 
5 35 0 -3.52176e-05 0.000948308 -0 
15 35 0 -5.19797e-05 0.000832199 -0 
25 35 0 -9.71858e-06 0.000635148 -0 
35 35 0 3.31909e-05 0.000464886 -0 
45 35 0 7.93148e-05 0.000480266 -0 
55 35 0 0.000156831 0.000666831 -0 
65 35 0 0.000270039 0.000922947 -0 
75 35 0 0.000323938 0.000827937 -0 
85 35 0 0.000260678 0.000534665 -0 
95 35 0 0.000164919 0.000344152 -0 
105 35 0 0.000111458 0.000288159 -0 
115 35 0 0.000122389 0.000276601 -0 
125 35 0 0.000277843 0.000638877 -0 
135 35 0 0.000563323 0.000712255 -0 
145 35 0 0.000842735 0.000714212 -0 
155 35 0 0.00102189 0.000598292 -0 
165 35 0 0.00109089 0.000516111 -0 
175 35 0 0.001141 0.000473892 -0 
185 35 0 0.00120442 0.000465043 -0 
195 35 0 0.00120338 0.000458812 -0 
205 35 0 0.00104518 0.000450747 -0 
215 35 0 0.00075565 0.000382463 -0 
225 35 0 0.000474544 0.000306919 -0 
235 35 0 0.000271249 0.000237494 -0 
245 35 0 0.000145765 0.000158165 -0 
255 35 0 9.0021e-05 0.000103816 -0 
265 35 0 7.43337e-05 8.82472e-05 -0 
275 35 0 7.84593e-05 0.000108614 -0 
285 35 0 9.04443e-05 0.00016656 -0 
295 35 0 9.45877e-05 0.000236813 -0 
305 35 0 7.30693e-05 0.000275736 -0 
315 35 0 2.69202e-05 0.000259213 -0 
320 35 0 1.34601e-05 0.000259213 9.62419e-07 
0 45 0 -2.88314e-06 0.000773254 1.93116e-05 
5 45 0 -5.76629e-06 0.000773254 -0 
15 45 0 6.66993e-06 0.000666496 -0 
25 45 0 3.99985e-05 0.000554229 -0 
35 45 0 6.22362e-05 0.000442094 -0 
45 45 0 8.52087e-05 0.000460541 -0 
55 45 0 0.000141895 0.000603789 -0 
65 45 0 0.000235594 0.000807199 -0 
75 45 0 0.000289899 0.000776774 -0 
85 45 0 0.000259179 0.000568434 -0 
95 45 0 0.000197297 0.000419498 -0 
105 45 0 0.000159809 0.000334212 -0 
115 45 0 0.00017576 0.000271265 -0 
125 45 0 0.000287287 0.000539258 -0 
135 45 0 0.000489086 0.00062017 -0 
145 45 0 0.000702725 0.000593037 -0 
155 45 0 0.000849344 0.000492518 -0 
165 45 0 0.000918197 0.000470249 -0 
175 45 0 0.000965552 0.000474366 -0 
185 45 0 0.00100991 0.00049073 -0 
195 45 0 0.00102417 0.000493807 -0 
205 45 0 0.000975781 0.000522668 -0 
215 45 0 0.000861692 0.000519714 -0 
225 45 0 0.000702704 0.000525239 -0 
235 45 0 0.000499282 0.000500528 -0 
245 45 0 0.000297474 0.00037549 -0 
255 45 0 0.000168447 0.000239642 -0 
265 45 0 0.000107699 0.000175066 -0 
275 45 0 7.77455e-05 0.000168196 -0 
285 45 0 6.0857e-05 0.000202834 -0 
295 45 0 5.68908e-05 0.000247657 -0 
305 45 0 5.19848e-05 0.000275424 -0 
315 45 0 2.26742e-05 0.000261416 -0 
320 45 0 1.13371e-05 0.000261416 8.51588e-06 
0 55 0 1.53873e-05 0.00058363 1.36113e-05 
5 55 0 3.07746e-05 0.00058363 -0 
15 55 0 8.59403e-05 0.000538227 -0 
25 55 0 0.000121335 0.000500912 -0 
35 55 0 0.000131049 0.00043148 -0 
45 55 0 0.000134843 0.000442544 -0 
55 55 0 0.000161276 0.000533658 -0 
65 55 0 0.000215685 0.00068722 -0 
75 55 0 0.000261529 0.00074403 -0 
85 55 0 0.000265343 0.000656321 -0 
95 55 0 0.000242243 0.00055517 -0 
105 55 0 0.000229972 0.000419253 -0 
115 55 0 0.000270307 0.000304915 -0 
125 55 0 0.000367817 0.00062342 -0 
135 55 0 0.000483485 0.000656865 -0 
145 55 0 0.000566824 0.000547611 -0 
155 55 0 0.000585885 0.000420026 -0 
165 55 0 0.000559559 0.000395092 -0 
175 55 0 0.000523901 0.000383741 -0 
185 55 0 0.000494952 0.000373247 -0 
195 55 0 0.000484009 0.000356619 -0 
205 55 0 0.000510928 0.000394493 -0 
215 55 0 0.000592216 0.000469389 -0 
225 55 0 0.000699447 0.000633825 -0 
235 55 0 0.000721928 0.000835887 -0 
245 55 0 0.000571781 0.000830639 -0 
255 55 0 0.000341086 0.000595385 -0 
265 55 0 0.000164825 0.000387618 -0 
275 55 0 6.25962e-05 0.000273687 -0 
285 55 0 1.56548e-05 0.0002266 -0 
295 55 0 8.84843e-06 0.000202239 -0 
305 55 0 1.50128e-05 0.000197944 -0 
315 55 0 8.45452e-06 0.000197284 -0 
320 55 0 4.22726e-06 0.000197284 1.05363e-05 
0 65 0 2.37928e-05 0.000395225 8.39779e-06 
5 65 0 4.75856e-05 0.000395225 -0 
15 65 0 0.000135152 0.000430725 -0 
25 65 0 0.000194251 0.000457156 -0 
35 65 0 0.000209826 0.000420176 -0 
45 65 0 0.000199795 0.000415939 -0 
55 65 0 0.000195393 0.000459423 -0 
65 65 0 0.000216768 0.000579877 -0 
75 65 0 0.000255833 0.000707463 -0 
85 65 0 0.000276883 0.000714417 -0 
95 65 0 0.000272752 0.000615273 -0 
105 65 0 0.000276311 0.000423504 -0 
115 65 0 0.000342773 0.000292312 -0 
125 65 0 0.000459353 0.000842252 -0 
135 65 0 0.000519074 0.000790432 -0 
145 65 0 0.000485868 0.000566877 -0 
155 65 0 0.000410142 0.000393297 -0 
165 65 0 0.000332546 0.000339102 -0 
175 65 0 0.000269865 0.000300152 -0 
185 65 0 0.000227625 0.000267281 -0 
195 65 0 0.000213226 0.000240313 -0 
205 65 0 0.00024115 0.000265565 -0 
215 65 0 0.000336145 0.000353584 -0 
225 65 0 0.000532949 0.00059828 -0 
235 65 0 0.000814817 0.00105349 -0 
245 65 0 0.000937984 0.00144141 -0 
255 65 0 0.000692065 0.00131019 -0 
265 65 0 0.000303995 0.000845641 -0 
275 65 0 6.74801e-05 0.00045819 -0 
285 65 0 -5.02588e-06 0.000253925 -0 
295 65 0 -9.05262e-06 0.000155448 -0 
305 65 0 -2.56222e-06 0.000124514 -0 
315 65 0 -1.34163e-08 0.000128263 -0 
320 65 0 -6.70814e-09 0.000128263 4.95621e-06 
0 75 0 1.81583e-05 0.000256177 2.63127e-06 
5 75 0 3.63165e-05 0.000256177 -0 
15 75 0 0.000116751 0.00033612 -0 
25 75 0 0.000189968 0.000391762 -0 
35 75 0 0.000220683 0.000371284 -0 
45 75 0 0.000212504 0.00035233 -0 
55 75 0 0.000196918 0.00036736 -0 
65 75 0 0.000203798 0.000463604 -0 
75 75 0 0.000235402 0.000610896 -0 
85 75 0 0.000251052 0.000645407 -0 
95 75 0 0.00023898 0.000510801 -0 
105 75 0 0.000231584 0.00031605 -0 
115 75 0 0.000284598 0.000214127 -0 
125 75 0 0.000463253 0.00106642 -0 
135 75 0 0.000563308 0.000953396 -0 
145 75 0 0.000466144 0.000621093 -0 
155 75 0 0.000337456 0.000391958 -0 
165 75 0 0.000239545 0.000301669 -0 
175 75 0 0.00017613 0.000246803 -0 
185 75 0 0.000142662 0.00021309 -0 
195 75 0 0.0001356 0.000196665 -0 
205 75 0 0.000154005 0.000221328 -0 
215 75 0 0.000205271 0.000299087 -0 
225 75 0 0.000322573 0.000529067 -0 
235 75 0 0.000603853 0.00104435 -0 
245 75 0 0.000980577 0.00177604 -0 
255 75 0 0.00100946 0.0021027 -0 
265 75 0 0.000573923 0.00153776 -0 
275 75 0 0.000162812 0.000742857 -0 
285 75 0 1.81588e-05 0.000304171 -0 
295 75 0 -3.79735e-06 0.000138724 -0 
305 75 0 -4.30391e-06 9.38651e-05 -0 
315 75 0 -1.66455e-06 9.58243e-05 -0 
320 75 0 -8.32275e-07 9.58243e-05 1.19585e-06 
0 85 0 1.10961e-05 0.000187298 -5.5711e-07 
5 85 0 2.21922e-05 0.000187298 -0 
15 85 0 7.47801e-05 0.000265892 -0 
25 85 0 0.000126044 0.000306141 -0 
35 85 0 0.000149896 0.000280988 -0 
45 85 0 0.000147205 0.000254762 -0 
55 85 0 0.000139071 0.00026191 -0 
65 85 0 0.000147628 0.000336261 -0 
75 85 0 0.000173615 0.000456221 -0 
85 85 0 0.000185681 0.000475185 -0 
95 85 0 0.000171223 0.000338928 -0 
105 85 0 0.000153814 0.000195879 -0 
115 85 0 0.000181578 0.000134669 -0 
125 85 0 0.000433332 0.00115376 -0 
135 85 0 0.000645092 0.0010763 -0 
145 85 0 0.000541363 0.000702101 -0 
155 85 0 0.000360175 0.000414704 -0 
165 85 0 0.00022654 0.000280142 -0 
175 85 0 0.000154903 0.000214173 -0 
185 85 0 0.000132028 0.000192465 -0 
195 85 0 0.000139654 0.000203201 -0 
205 85 0 0.00015575 0.000245947 -0 
215 85 0 0.000162811 0.000318148 -0 
225 85 0 0.000163621 0.000496349 -0 
235 85 0 0.000246919 0.00091165 -0 
245 85 0 0.000509847 0.00161566 -0 
255 85 0 0.000799802 0.00231074 -0 
265 85 0 0.000728188 0.00205259 -0 
275 85 0 0.000353265 0.00105902 -0 
285 85 0 9.46749e-05 0.000385686 -0 
295 85 0 1.60282e-05 0.000151661 -0 
305 85 0 -3.02802e-07 9.22786e-05 -0 
315 85 0 -1.20715e-06 8.97509e-05 -0 
320 85 0 -6.03576e-07 8.97509e-05 -5.55501e-07 
0 95 0 6.37516e-06 0.000160703 -1.11245e-06 
5 95 0 1.27503e-05 0.000160703 -0 
15 95 0 4.13601e-05 0.000216259 -0 
25 95 0 6.62911e-05 0.000224298 -0 
35 95 0 7.5946e-05 0.000190445 -0 
45 95 0 7.32693e-05 0.000166994 -0 
55 95 0 7.00383e-05 0.000176616 -0 
65 95 0 7.79326e-05 0.000234329 -0 
75 95 0 9.91996e-05 0.000318946 -0 
85 95 0 0.000117164 0.000326203 -0 
95 95 0 0.000113074 0.000223596 -0 
105 95 0 9.90771e-05 0.00012984 -0 
115 95 0 0.000116875 9.40271e-05 -0 
125 95 0 0.000407609 0.00107609 -0 
135 95 0 0.000719957 0.00110024 -0 
145 95 0 0.000657079 0.000793173 -0 
155 95 0 0.000435773 0.000468156 -0 
165 95 0 0.00025855 0.000282846 -0 
175 95 0 0.000176023 0.00020397 -0 
185 95 0 0.000169619 0.000198244 -0 
195 95 0 0.000206266 0.000252077 -0 
205 95 0 0.000221531 0.000339982 -0 
215 95 0 0.000161654 0.000419281 -0 
225 95 0 6.61692e-05 0.000536994 -0 
235 95 0 1.53008e-05 0.00081703 -0 
245 95 0 7.3245e-05 0.00128854 -0 
255 95 0 0.000295742 0.0019124 -0 
265 95 0 0.000495126 0.00201605 -0 
275 95 0 0.000399954 0.00124288 -0 
285 95 0 0.000168854 0.000488898 -0 
295 95 0 4.40446e-05 0.000194662 -0 
305 95 0 6.89943e-06 0.000113074 -0 
315 95 0 -4.11093e-08 0.000100208 -0 
320 95 0 -2.05546e-08 0.000100208 -1.78564e-06 
0 105 0 2.80308e-06 0.000151971 -8.12389e-07 
5 105 0 5.60616e-06 0.000151971 -0 
15 105 0 1.75774e-05 0.000176832 -0 
25 105 0 2.68204e-05 0.000161581 -0 
35 105 0 3.00007e-05 0.000129334 -0 
45 105 0 2.96556e-05 0.000116497 -0 
55 105 0 3.06637e-05 0.000133587 -0 
65 105 0 3.9022e-05 0.000185658 -0 
75 105 0 5.99357e-05 0.000249344 -0 
85 105 0 8.39228e-05 0.000251679 -0 
95 105 0 8.90304e-05 0.000177138 -0 
105 105 0 8.17301e-05 0.000112186 -0 
115 105 0 0.000100144 8.93994e-05 -0 
125 105 0 0.000371072 0.000896621 -0 
135 105 0 0.00070252 0.00101317 -0 
145 105 0 0.000700606 0.000870881 -0 
155 105 0 0.000492292 0.000567099 -0 
165 105 0 0.000296038 0.000330121 -0 
175 105 0 0.000211455 0.000229308 -0 
185 105 0 0.000232178 0.000238219 -0 
195 105 0 0.000327158 0.000357017 -0 
205 105 0 0.000361174 0.00054772 -0 
215 105 0 0.00020926 0.000689506 -0 
225 105 0 3.65445e-05 0.000760733 -0 
235 105 0 -3.24828e-05 0.00088087 -0 
245 105 0 -3.9252e-05 0.00110613 -0 
255 105 0 6.87877e-05 0.00145331 -0 
265 105 0 0.000266767 0.00163341 -0 
275 105 0 0.000334137 0.00122428 -0 
285 105 0 0.000207501 0.000597977 -0 
295 105 0 7.31507e-05 0.000276598 -0 
305 105 0 1.4968e-05 0.00016326 -0 
315 105 0 7.25548e-07 0.00012764 -0 
320 105 0 3.62774e-07 0.00012764 -3.56386e-06 
0 115 0 1.024e-06 0.000152136 -7.51607e-07 
5 115 0 2.04799e-06 0.000152136 -0 
15 115 0 6.99401e-06 0.000146082 -0 
25 115 0 1.07489e-05 0.000121245 -0 
35 115 0 1.19614e-05 9.80113e-05 -0 
45 115 0 1.26384e-05 9.93008e-05 -0 
55 115 0 1.45689e-05 0.000129502 -0 
65 115 0 2.07259e-05 0.000187071 -0 
75 115 0 3.73314e-05 0.000238114 -0 
85 115 0 6.11812e-05 0.000232689 -0 
95 115 0 7.46124e-05 0.000175373 -0 
105 115 0 7.84406e-05 0.000130487 -0 
115 115 0 0.000100815 0.000119335 -0 
125 115 0 0.00030321 0.000700744 -0 
135 115 0 0.000572893 0.000876598 -0 
145 115 0 0.000635673 0.000933342 -0 
155 115 0 0.000512922 0.000732758 -0 
165 115 0 0.000347729 0.000455182 -0 
175 115 0 0.000277323 0.000320267 -0 
185 115 0 0.000334999 0.000346736 -0 
195 115 0 0.000510731 0.000569353 -0 
205 115 0 0.000590612 0.000957349 -0 
215 115 0 0.000344703 0.00129362 -0 
225 115 0 8.13736e-05 0.00133627 -0 
235 115 0 8.38522e-07 0.00117551 -0 
245 115 0 -2.61935e-05 0.00110253 -0 
255 115 0 3.31723e-05 0.00116146 -0 
265 115 0 0.000181704 0.00125442 -0 
275 115 0 0.000285979 0.00109918 -0 
285 115 0 0.00023032 0.000707231 -0 
295 115 0 0.000103366 0.000410158 -0 
305 115 0 2.37615e-05 0.000256816 -0 
315 115 0 7.60039e-07 0.00017547 -0 
320 115 0 3.8002e-07 0.00017547 -5.70488e-06 
0 125 0 5.00729e-07 0.000153299 -9.08912e-08 
5 125 0 1.00146e-06 0.000153299 -0 
15 125 0 2.59487e-06 0.00011974 -0 
25 125 0 2.93848e-06 9.53568e-05 -0 
35 125 0 3.47726e-06 8.5701e-05 -0 
45 125 0 5.99427e-06 0.000107473 -0 
55 125 0 1.04243e-05 0.000163895 -0 
65 125 0 1.67772e-05 0.000237338 -0 
75 125 0 3.15535e-05 0.000272488 -0 
85 125 0 5.60885e-05 0.000254025 -0 
95 125 0 7.78416e-05 0.000209828 -0 
105 125 0 9.3223e-05 0.000184957 -0 
115 125 0 0.000114737 0.000190807 -0 
125 125 0 0.000233933 0.000555399 -0 
135 125 0 0.000417612 0.000767749 -0 
145 125 0 0.000531531 0.000998608 -0 
155 125 0 0.000524961 0.000977953 -0 
165 125 0 0.000441621 0.000701986 -0 
175 125 0 0.000422105 0.000533671 -0 
185 125 0 0.000545241 0.000587444 -0 
195 125 0 0.000808216 0.000950123 -0 
205 125 0 0.000925811 0.00159244 -0 
215 125 0 0.000622324 0.00223774 -0 
225 125 0 0.000268528 0.00221803 -0 
235 125 0 0.000120943 0.00162951 -0 
245 125 0 5.77534e-05 0.00119792 -0 
255 125 0 7.86326e-05 0.00100746 -0 
265 125 0 0.000169169 0.000999542 -0 
275 125 0 0.00025617 0.000983764 -0 
285 125 0 0.000238213 0.000819733 -0 
295 125 0 0.00012861 0.000593795 -0 
305 125 0 3.52658e-05 0.000392023 -0 
315 125 0 2.8889e-06 0.000234319 -0 
320 125 0 1.44445e-06 0.000234319 -5.33526e-06 
0 135 0 2.74145e-07 0.00014549 1.34281e-06 
5 135 0 5.4829e-07 0.00014549 -0 
15 135 0 -4.15544e-08 9.60818e-05 -0 
25 135 0 -2.30018e-06 7.97155e-05 -0 
35 135 0 -2.94169e-06 8.76654e-05 -0 
45 135 0 3.83861e-07 0.000141842 -0 
55 135 0 7.60004e-06 0.00024302 -0 
65 135 0 1.69827e-05 0.000329958 -0 
75 135 0 3.63901e-05 0.000331513 -0 
85 135 0 6.9453e-05 0.000298084 -0 
95 135 0 0.000104552 0.000269814 -0 
105 135 0 0.00013125 0.000268213 -0 
115 135 0 0.000146635 0.000298622 -0 
125 135 0 0.000210788 0.000482863 -0 
135 135 0 0.000344647 0.000720177 -0 
145 135 0 0.00050025 0.00108358 -0 
155 135 0 0.00061018 0.00129594 -0 
165 135 0 0.000650808 0.00110289 -0 
175 135 0 0.00072952 0.000922855 -0 
185 135 0 0.000924232 0.000985102 -0 
195 135 0 0.00118458 0.0014232 -0 
205 135 0 0.00125071 0.00221267 -0 
215 135 0 0.00098451 0.00309438 -0 
225 135 0 0.000650292 0.0029926 -0 
235 135 0 0.000405883 0.00206246 -0 
245 135 0 0.000239775 0.00133975 -0 
255 135 0 0.000170902 0.00097937 -0 
265 135 0 0.000178034 0.000896588 -0 
275 135 0 0.000213482 0.000946751 -0 
285 135 0 0.000202897 0.000942453 -0 
295 135 0 0.000127629 0.00078909 -0 
305 135 0 5.20444e-05 0.000521063 -0 
315 135 0 1.26157e-05 0.000276496 -0 
320 135 0 6.30784e-06 0.000276496 8.70181e-10 
0 145 0 -5.23989e-07 0.000134967 8.61676e-07 
5 145 0 -1.04798e-06 0.000134967 -0 
15 145 0 -3.60434e-06 8.7053e-05 -0 
25 145 0 -6.63401e-06 8.48833e-05 -0 
35 145 0 -9.033e-06 0.000119381 -0 
45 145 0 -8.70396e-06 0.000226705 -0 
55 145 0 -3.49913e-06 0.0003744 -0 
65 145 0 1.25175e-05 0.000436566 -0 
75 145 0 4.63139e-05 0.000388543 -0 
85 145 0 9.43914e-05 0.000348155 -0 
95 145 0 0.00014875 0.000334884 -0 
105 145 0 0.000191696 0.000359033 -0 
115 145 0 0.000208017 0.000421807 -0 
125 145 0 0.000248236 0.000458605 -0 
135 145 0 0.000367599 0.000710184 -0 
145 145 0 0.00057457 0.00114743 -0 
155 145 0 0.000821987 0.00156467 -0 
165 145 0 0.00102746 0.0015183 -0 
175 145 0 0.0012005 0.00134964 -0 
185 145 0 0.00136391 0.00136208 -0 
195 145 0 0.00146236 0.00172906 -0 
205 145 0 0.00142697 0.00247244 -0 
215 145 0 0.00130837 0.00338267 -0 
225 145 0 0.00113919 0.00332938 -0 
235 145 0 0.000849244 0.00241733 -0 
245 145 0 0.000530452 0.0015712 -0 
255 145 0 0.000317744 0.00110962 -0 
265 145 0 0.000216984 0.000963967 -0 
275 145 0 0.000175303 0.00103674 -0 
285 145 0 0.000140733 0.00109141 -0 
295 145 0 0.000103953 0.000929719 -0 
305 145 0 6.50846e-05 0.00057366 -0 
315 145 0 2.18003e-05 0.000281872 -0 
320 145 0 1.09001e-05 0.000281872 5.807e-06 
0 155 0 -1.0454e-06 0.000137411 -7.22655e-07 
5 155 0 -2.0908e-06 0.000137411 -0 
15 155 0 -6.03495e-06 0.000107103 -0 
25 155 0 -1.07372e-05 0.00013407 -0 
35 155 0 -2.04145e-05 0.000222456 -0 
45 155 0 -3.57073e-05 0.000406278 -0 
55 155 0 -3.66598e-05 0.00056006 -0 
65 155 0 -1.25535e-06 0.000542012 -0 
75 155 0 5.58614e-05 0.000449197 -0 
85 155 0 0.000114514 0.000407753 -0 
95 155 0 0.00020425 0.000365184 -0 
105 155 0 0.00028844 0.000440106 -0 
115 155 0 0.000307327 0.000546313 -0 
125 155 0 0.000318575 0.000445055 -0 
135 155 0 0.000411071 0.000685848 -0 
145 155 0 0.000621997 0.00108966 -0 
155 155 0 0.000924886 0.00152838 -0 
165 155 0 0.00121208 0.00158956 -0 
175 155 0 0.00139054 0.0014702 -0 
185 155 0 0.00144199 0.00145247 -0 
195 155 0 0.00139027 0.00170218 -0 
205 155 0 0.00133022 0.00228832 -0 
215 155 0 0.00138554 0.00307355 -0 
225 155 0 0.00147116 0.00322882 -0 
235 155 0 0.00132131 0.00271089 -0 
245 155 0 0.000949602 0.00195441 -0 
255 155 0 0.000584705 0.00145072 -0 
265 155 0 0.000333139 0.00123659 -0 
275 155 0 0.000177099 0.00129352 -0 
285 155 0 9.43276e-05 0.00128225 -0 
295 155 0 7.17489e-05 0.000983313 -0 
305 155 0 5.31347e-05 0.000537463 -0 
315 155 0 1.7887e-05 0.000257248 -0 
320 155 0 8.94348e-06 0.000257248 7.05529e-06 
0 165 0 -5.78512e-09 0.000149318 -1.23834e-06 
5 165 0 -1.15702e-08 0.000149318 -0 
15 165 0 -1.54675e-06 0.000152112 -0 
25 165 0 -1.11751e-05 0.000236139 -0 
35 165 0 -4.48327e-05 0.000411555 -0 
45 165 0 -9.13483e-05 0.000648278 -0 
55 165 0 -8.90075e-05 0.000730486 -0 
65 165 0 -2.27902e-05 0.000617624 -0 
75 165 0 4.53567e-05 0.000513363 -0 
85 165 0 5.50312e-05 0.000505271 -0 
95 165 0 0.000244846 0.000201303 -0 
105 165 0 0.000456579 0.00052756 -0 
115 165 0 0.000430026 0.000665693 -0 
125 165 0 0.000387424 0.000422936 -0 
135 165 0 0.00042629 0.000614263 -0 
145 165 0 0.000540879 0.000867624 -0 
155 165 0 0.000694861 0.00112483 -0 
165 165 0 0.000860461 0.00119534 -0 
175 165 0 0.000983072 0.0011593 -0 
185 165 0 0.00102298 0.00119076 -0 
195 165 0 0.00100277 0.00137297 -0 
205 165 0 0.00103005 0.00179385 -0 
215 165 0 0.00123589 0.00240347 -0 
225 165 0 0.00157388 0.00276121 -0 
235 165 0 0.00173773 0.00279615 -0 
245 165 0 0.00153957 0.00241022 -0 
255 165 0 0.0011129 0.00201259 -0 
265 165 0 0.000669291 0.00174039 -0 
275 165 0 0.000321434 0.00171574 -0 
285 165 0 0.000124596 0.00151335 -0 
295 165 0 5.63e-05 0.000992814 -0 
305 165 0 2.80762e-05 0.000478888 -0 
315 165 0 7.40039e-06 0.000229148 -0 
320 165 0 3.70019e-06 0.000229148 3.62224e-06 
0 175 0 2.38275e-06 0.000153738 -5.96348e-07 
5 175 0 4.76549e-06 0.000153738 -0 
15 175 0 9.75363e-06 0.000190668 -0 
25 175 0 -7.64431e-06 0.000342101 -0 
35 175 0 -7.17455e-05 0.000597297 -0 
45 175 0 -0.000138492 0.00080088 -0 
55 175 0 -0.000121337 0.000756127 -0 
65 175 0 -3.79511e-05 0.000590662 -0 
75 175 0 3.38772e-05 0.000517358 -0 
85 175 0 3.28442e-05 0.000601543 -0 
95 175 0 6.68878e-06 3.76794e-05 -0 
105 175 0 0.000320877 0.000312213 -0 
115 175 0 0.000549968 0.000768403 -0 
125 175 0 0.000428142 0.0003964 -0 
135 175 0 0.000393406 0.000501053 -0 
145 175 0 0.000391372 0.000568173 -0 
155 175 0 0.000399989 0.000623951 -0 
165 175 0 0.000445242 0.000650388 -0 
175 175 0 0.000507886 0.000664626 -0 
185 175 0 0.00054635 0.000742422 -0 
195 175 0 0.00056488 0.000887997 -0 
205 175 0 0.000636071 0.00119437 -0 
215 175 0 0.000861127 0.00164959 -0 
225 175 0 0.00123289 0.0020681 -0 
235 175 0 0.00158363 0.00247228 -0 
245 175 0 0.00170817 0.00258784 -0 
255 175 0 0.00152498 0.00251014 -0 
265 175 0 0.00113307 0.00227882 -0 
275 175 0 0.000691053 0.00211323 -0 
285 175 0 0.00033059 0.00166841 -0 
295 175 0 0.000113014 0.000973647 -0 
305 175 0 2.25658e-05 0.000447037 -0 
315 175 0 1.69346e-06 0.000217471 -0 
320 175 0 8.4673e-07 0.000217471 5.31943e-07 
0 185 0 3.8075e-06 0.000145025 -1.371e-07 
5 185 0 7.615e-06 0.000145025 -0 
15 185 0 1.55635e-05 0.000196819 -0 
25 185 0 -8.18028e-06 0.000382998 -0 
35 185 0 -8.53125e-05 0.00065825 -0 
45 185 0 -0.000157973 0.000768271 -0 
55 185 0 -0.000139044 0.00061437 -0 
65 185 0 -5.61431e-05 0.000454507 -0 
75 185 0 3.91963e-05 0.000416829 -0 
85 185 0 0.000200281 0.000516085 -0 
95 185 0 0.000153866 0.000200489 -0 
105 185 0 6.67753e-06 3.70347e-05 -0 
115 185 0 0.000285151 0.000425359 -0 
125 185 0 0.000465851 0.000406767 -0 
135 185 0 0.000340111 0.000393985 -0 
145 185 0 0.000271911 0.000332298 -0 
155 185 0 0.000229945 0.000290933 -0 
165 185 0 0.000226451 0.000282128 -0 
175 185 0 0.000246582 0.000301554 -0 
185 185 0 0.000259759 0.000387054 -0 
195 185 0 0.000277537 0.000496473 -0 
205 185 0 0.000352702 0.000724063 -0 
215 185 0 0.00052318 0.00106545 -0 
225 185 0 0.000739682 0.00142953 -0 
235 185 0 0.00095028 0.00188123 -0 
245 185 0 0.00110912 0.00227984 -0 
255 185 0 0.0011498 0.00251277 -0 
265 185 0 0.00106782 0.00244028 -0 
275 185 0 0.000863899 0.0022129 -0 
285 185 0 0.000543682 0.00166971 -0 
295 185 0 0.000228232 0.000945861 -0 
305 185 0 5.64442e-05 0.000451496 -0 
315 185 0 6.71212e-06 0.000228771 -0 
320 185 0 3.35606e-06 0.000228771 -1.11084e-06 
0 195 0 3.25553e-06 0.000133557 -3.94612e-07 
5 195 0 6.51105e-06 0.000133557 -0 
15 195 0 1.15768e-05 0.000181642 -0 
25 195 0 -1.59161e-05 0.000357136 -0 
35 195 0 -9.53926e-05 0.000597138 -0 
45 195 0 -0.00018734 0.000647868 -0 
55 195 0 -0.000181134 0.000411794 -0 
65 195 0 -9.60326e-05 0.000295287 -0 
75 195 0 -1.39073e-05 0.000285343 -0 
85 195 0 8.92428e-05 0.000340778 -0 
95 195 0 0.000196943 0.000337159 -0 
105 195 0 0.00013269 0.000157514 -0 
115 195 0 4.04076e-05 1.77957e-05 -0 
125 195 0 0.000214033 0.000227146 -0 
135 195 0 0.000318137 0.000341859 -0 
145 195 0 0.000233172 0.000206547 -0 
155 195 0 0.000182097 0.000145781 -0 
165 195 0 0.00016547 0.000128853 -0 
175 195 0 0.000173875 0.000148786 -0 
185 195 0 0.00015893 0.000261651 -0 
195 195 0 0.000141921 0.000330399 -0 
205 195 0 0.000190665 0.000497118 -0 
215 195 0 0.000291083 0.000755655 -0 
225 195 0 0.000348015 0.001033 -0 
235 195 0 0.000359967 0.00138153 -0 
245 195 0 0.000382931 0.00178508 -0 
255 195 0 0.000429756 0.00209433 -0 
265 195 0 0.000516744 0.00215056 -0 
275 195 0 0.000576107 0.0020146 -0 
285 195 0 0.000487844 0.00162744 -0 
295 195 0 0.000272899 0.00101019 -0 
305 195 0 9.34774e-05 0.000524791 -0 
315 195 0 1.61016e-05 0.000273846 -0 
320 195 0 8.0508e-06 0.000273846 -3.34151e-06 
0 205 0 1.35596e-06 0.000129879 -7.14276e-07 
5 205 0 2.71193e-06 0.000129879 -0 
15 205 0 3.71508e-06 0.000163424 -0 
25 205 0 -1.46058e-05 0.000300781 -0 
35 205 0 -7.92777e-05 0.000502964 -0 
45 205 0 -0.000263879 0.000646569 -0 
55 205 0 -0.000306114 0.000179594 -0 
65 205 0 -0.000161307 0.000154235 -0 
75 205 0 -6.80357e-05 0.000186327 -0 
85 205 0 3.30964e-05 0.000248498 -0 
95 205 0 0.000156055 0.000281192 -0 
105 205 0 0.000264058 0.000269596 -0 
115 205 0 0.000181224 0.000122416 -0 
125 205 0 3.42683e-05 4.55446e-05 -0 
135 205 0 0.000133577 0.00016774 -0 
145 205 0 0.000251533 9.88104e-05 -0 
155 205 0 0.00022827 7.71392e-05 -0 
165 205 0 0.000208826 6.53189e-05 -0 
175 205 0 0.000248056 7.05461e-05 -0 
185 205 0 0.000194766 0.000361304 -0 
195 205 0 9.68306e-05 0.000344662 -0 
205 205 0 0.000123643 0.000471536 -0 
215 205 0 0.00018507 0.000677738 -0 
225 205 0 0.000175495 0.000875963 -0 
235 205 0 0.000121631 0.00112652 -0 
245 205 0 9.82311e-05 0.00144141 -0 
255 205 0 0.000125278 0.00167074 -0 
265 205 0 0.000219274 0.00173123 -0 
275 205 0 0.000327519 0.00169489 -0 
285 205 0 0.000354988 0.00156521 -0 
295 205 0 0.000252673 0.00116689 -0 
305 205 0 0.000104951 0.000690576 -0 
315 205 0 1.95787e-05 0.000366954 -0 
320 205 0 9.78936e-06 0.000366954 -8.14401e-06 
0 215 0 -7.32983e-07 0.000138364 -1.23192e-06 
5 215 0 -1.46597e-06 0.000138364 -0 
15 215 0 -5.087e-07 0.000145427 -0 
25 215 0 6.30433e-06 0.000228596 -0 
35 215 0 1.49953e-05 0.000390232 -0 
45 215 0 8.88081e-06 0.000657362 -0 
55 215 0 1.21613e-06 4.49777e-05 -0 
65 215 0 3.74421e-06 8.87908e-05 -0 
75 215 0 1.95708e-06 0.000150297 -0 
85 215 0 -2.27173e-07 0.000220849 -0 
95 215 0 3.06997e-06 0.000254779 -0 
105 215 0 1.50525e-05 0.000247768 -0 
115 215 0 3.7178e-05 0.000234357 -0 
125 215 0 2.59341e-05 8.8536e-05 -0 
135 215 0 -5.16681e-07 3.91417e-06 -0 
145 215 0 1.07344e-05 1.76794e-05 -0 
155 215 0 1.72323e-05 5.40414e-05 -0 
165 215 0 9.28006e-06 4.42212e-05 -0 
175 215 0 9.62313e-06 2.84702e-05 -0 
185 215 0 1.5542e-05 0.000555295 -0 
195 215 0 3.07411e-05 0.000475891 -0 
205 215 0 7.95799e-05 0.000596264 -0 
215 215 0 0.000131133 0.000781429 -0 
225 215 0 0.000106864 0.000928516 -0 
235 215 0 4.6289e-05 0.00111586 -0 
245 215 0 1.79837e-05 0.00132975 -0 
255 215 0 4.66305e-05 0.00142636 -0 
265 215 0 0.000141019 0.00141127 -0 
275 215 0 0.00025274 0.0013991 -0 
285 215 0 0.000310073 0.00146602 -0 
295 215 0 0.000247349 0.00134887 -0 
305 215 0 0.000107062 0.000944084 -0 
315 215 0 1.72298e-05 0.000515321 -0 
320 215 0 8.61492e-06 0.000515321 -1.41676e-05 
0 225 0 -2.39987e-06 0.000158673 -1.57672e-06 
5 225 0 -4.79974e-06 0.000158673 -0 
15 225 0 -2.02094e-06 0.000126449 -0 
25 225 0 2.21195e-05 0.000155851 -0 
35 225 0 6.89688e-05 0.000270728 -0 
45 225 0 7.35288e-05 0.000635869 -0 
55 225 0 3.78004e-05 5.60463e-05 -0 
65 225 0 2.50839e-05 0.000102472 -0 
75 225 0 1.9503e-05 0.000169166 -0 