TITLE= "workload"
VARIABLES= "X", "Y", "Z", "workload"
ZONE T="Rectangular zone"
 I=34, J=34, K=18, F=POINT
DT=(SINGLE SINGLE SINGLE SINGLE)
0 0 0 5.28163e-33 
5 0 0 9.06667e-05 
15 0 0 0 
25 0 0 5.85263e-31 
35 0 0 2.21405e-43 
45 0 0 9.99999e-09 
55 0 0 1e-08 
65 0 0 1e-08 
75 0 0 9.99998e-09 
85 0 0 1.48077e-30 
95 0 0 1.48078e-30 
105 0 0 1.48076e-30 
115 0 0 1.14114e-30 
125 0 0 5.14633e-33 
135 0 0 5.14633e-33 
145 0 0 5.14632e-33 
155 0 0 1.10006e-30 
165 0 0 9.99989e-09 
175 0 0 9.99975e-09 
185 0 0 9.998e-09 
195 0 0 9.99995e-09 
205 0 0 1.1e-30 
215 0 0 1.14544e-29 
225 0 0 2.60291e-27 
235 0 0 1.11991e-30 
245 0 0 1.65712e-19 
255 0 0 1.44663e-19 
265 0 0 9.23755e-20 
275 0 0 1.43369e-19 
285 0 0 1.12505e-06 
295 0 0 1.11358e-06 
305 0 0 1.11085e-06 
315 0 0 1.12743e-06 
320 0 0 1.12022e-06 
0 5 0 3.97993e-33 
5 5 0 6.8e-05 
15 5 0 0 
25 5 0 5.85496e-31 
35 5 0 2.21405e-43 
45 5 0 9.99998e-09 
55 5 0 1e-08 
65 5 0 9.99998e-09 
75 5 0 9.99999e-09 
85 5 0 1.10002e-30 
95 5 0 1.10002e-30 
105 5 0 1.15079e-30 
115 5 0 1.52584e-30 
125 5 0 1.106e-30 
135 5 0 4.66307e-29 
145 5 0 1.34914e-30 
155 5 0 2.27095e-30 
165 5 0 9.99995e-09 
175 5 0 9.99995e-09 
185 5 0 1.00003e-08 
195 5 0 1.03017e-08 
205 5 0 2.64996e-30 
215 5 0 1.14939e-29 
225 5 0 2.62433e-27 
235 5 0 1.38747e-26 
245 5 0 1.13215e-19 
255 5 0 8.3325e-20 
265 5 0 6.62171e-20 
275 5 0 8.55851e-20 
285 5 0 1.11989e-06 
295 5 0 1.13668e-06 
305 5 0 1.13579e-06 
315 5 0 1.1293e-06 
320 5 0 1.13685e-06 
0 15 0 4.05503e-33 
5 15 0 6.8e-05 
15 15 0 5 
25 15 0 1.17053e-30 
35 15 0 4.4281e-43 
45 15 0 1e-08 
55 15 0 1e-08 
65 15 0 1e-08 
75 15 0 1e-08 
85 15 0 1.10093e-30 
95 15 0 1.50543e-30 
105 15 0 1.48078e-30 
115 15 0 1.48076e-30 
125 15 0 1.35862e-28 
135 15 0 1.36707e-30 
145 15 0 5.14633e-33 
155 15 0 5.14632e-33 
165 15 0 1.20466e-08 
175 15 0 1.00071e-08 
185 15 0 9.99975e-09 
195 15 0 9.998e-09 
205 15 0 3.2771e-26 
215 15 0 1.71443e-26 
225 15 0 1.14544e-29 
235 15 0 2.60291e-27 
245 15 0 1.13086e-19 
255 15 0 6.00573e-20 
265 15 0 1.44663e-19 
275 15 0 9.23755e-20 
285 15 0 1.11358e-06 
295 15 0 1.11085e-06 
305 15 0 1.12505e-06 
315 15 0 1.11322e-06 
320 15 0 1.11345e-06 
0 25 0 7.92245e-33 
5 25 0 0.000136 
15 25 0 5 
25 25 0 1.17053e-30 
35 25 0 4.4281e-43 
45 25 0 9.99999e-09 
55 25 0 1e-08 
65 25 0 1e-08 
75 25 0 9.99997e-09 
85 25 0 1.48077e-30 
95 25 0 1.1e-30 
105 25 0 1.1e-30 
115 25 0 1.14174e-30 
125 25 0 5.14633e-33 
135 25 0 1.1e-30 
145 25 0 1.10116e-30 
155 25 0 1.12966e-30 
165 25 0 9.99989e-09 
175 25 0 9.99985e-09 
185 25 0 9.99975e-09 
195 25 0 1e-08 
205 25 0 1.1e-30 
215 25 0 5.42444e-30 
225 25 0 7.38022e-29 
235 25 0 1.30821e-29 
245 25 0 1.65712e-19 
255 25 0 1.38941e-19 
265 25 0 8.51895e-20 
275 25 0 9.92944e-20 
285 25 0 1.13458e-06 
295 25 0 1.13202e-06 
305 25 0 1.12632e-06 
315 25 0 1.13685e-06 
320 25 0 1.13579e-06 
0 35 0 8.04684e-33 
5 35 0 0.000136 
15 35 0 5 
25 35 0 1.17165e-30 
35 35 0 4.4281e-43 
45 35 0 9.99998e-09 
55 35 0 1e-08 
65 35 0 1e-08 
75 35 0 9.99999e-09 
85 35 0 1.10021e-30 
95 35 0 1.50161e-30 
105 35 0 1.50543e-30 
115 35 0 1.52584e-30 
125 35 0 2.46224e-30 
135 35 0 1.27745e-28 
145 35 0 1.36707e-30 
155 35 0 2.27095e-30 
165 35 0 1e-08 
175 35 0 1.02312e-08 
185 35 0 1.00071e-08 
195 35 0 1.03017e-08 
205 35 0 7.9541e-29 
215 35 0 1.20649e-27 
225 35 0 1.71443e-26 
235 35 0 1.38747e-26 
245 35 0 7.80317e-20 
255 35 0 8.50108e-20 
265 35 0 6.00573e-20 
275 35 0 8.55851e-20 
285 35 0 1.1293e-06 
295 35 0 1.12505e-06 
305 35 0 1.11358e-06 
315 35 0 1.11085e-06 
320 35 0 1.12743e-06 
0 45 0 1.1e-30 
5 45 0 0.000136 
15 45 0 15 
25 45 0 1.17054e-30 
35 45 0 1.1e-30 
45 45 0 1e-08 
55 45 0 9.99999e-09 
65 45 0 1e-08 
75 45 0 1e-08 
85 45 0 1.10093e-30 
95 45 0 1.48077e-30 
105 45 0 1.48078e-30 
115 45 0 1.48076e-30 
125 45 0 1.35862e-28 
135 45 0 5.14633e-33 
145 45 0 5.14633e-33 
155 45 0 5.14632e-33 
165 45 0 1.20466e-08 
175 45 0 9.99989e-09 
185 45 0 9.99975e-09 
195 45 0 9.998e-09 
205 45 0 3.2771e-26 
215 45 0 1.1e-30 
225 45 0 1.14544e-29 
235 45 0 2.60291e-27 
245 45 0 1.13086e-19 
255 45 0 1.65712e-19 
265 45 0 1.44663e-19 
275 45 0 9.23755e-20 
285 45 0 1.12022e-06 
295 45 0 1.11989e-06 
305 45 0 1.13668e-06 
315 45 0 1.13579e-06 
320 45 0 1.1293e-06 
0 55 0 1.1e-30 
5 55 0 0.000136 
15 55 0 15 
25 55 0 1.17103e-30 
35 55 0 1.1e-30 
45 55 0 9.99998e-09 
55 55 0 9.99998e-09 
65 55 0 1e-08 
75 55 0 9.99998e-09 
85 55 0 1.14114e-30 
95 55 0 1.10002e-30 
105 55 0 1.10002e-30 
115 55 0 1.15079e-30 
125 55 0 1.10006e-30 
135 55 0 1.106e-30 
145 55 0 4.66307e-29 
155 55 0 1.34914e-30 
165 55 0 9.99995e-09 
175 55 0 9.99995e-09 
185 55 0 9.99995e-09 
195 55 0 1.00003e-08 
205 55 0 1.11991e-30 
215 55 0 2.64996e-30 
225 55 0 1.14939e-29 
235 55 0 2.62433e-27 
245 55 0 1.43369e-19 
255 55 0 1.13215e-19 
265 55 0 8.3325e-20 
275 55 0 6.62171e-20 
285 55 0 1.13685e-06 
295 55 0 1.11358e-06 
305 55 0 1.11085e-06 
315 55 0 1.12505e-06 
320 55 0 1.11322e-06 
0 65 0 1.1e-30 
5 65 0 0.000136 
15 65 0 25 
25 65 0 1.17054e-30 
35 65 0 1.1e-30 
45 65 0 9.99999e-09 
55 65 0 1e-08 
65 65 0 1e-08 
75 65 0 1e-08 
85 65 0 1.52584e-30 
95 65 0 1.10093e-30 
105 65 0 1.50543e-30 
115 65 0 0 
125 65 0 2.27095e-30 
135 65 0 1.35862e-28 
145 65 0 1.36707e-30 
155 65 0 0 
165 65 0 1.03017e-08 
175 65 0 1.20466e-08 
185 65 0 1.00071e-08 
195 65 0 9.99975e-09 
205 65 0 1.38747e-26 
215 65 0 3.2771e-26 
225 65 0 1.71443e-26 
235 65 0 1.14544e-29 
245 65 0 8.55851e-20 
255 65 0 1.13086e-19 
265 65 0 6.00573e-20 
275 65 0 1.44663e-19 
285 65 0 1.11345e-06 
295 65 0 1.13458e-06 
305 65 0 1.13202e-06 
315 65 0 1.12632e-06 
320 65 0 1.13691e-06 
0 75 0 1.10064e-30 
5 75 0 0.000136 
15 75 0 25 
25 75 0 1.17057e-30 
35 75 0 1.1e-30 
45 75 0 1e-08 
55 75 0 9.99999e-09 
65 75 0 1e-08 
75 75 0 1e-08 
85 75 0 0 
95 75 0 1.48077e-30 
105 75 0 1.1e-30 
115 75 0 1.1e-30 
125 75 0 0 
135 75 0 5.14633e-33 
145 75 0 1.1e-30 
155 75 0 1.10116e-30 
165 75 0 9.998e-09 
175 75 0 9.99989e-09 
185 75 0 9.99985e-09 
195 75 0 9.99975e-09 
205 75 0 2.60291e-27 
215 75 0 1.1e-30 
225 75 0 5.42444e-30 
235 75 0 7.38022e-29 
245 75 0 9.23755e-20 
255 75 0 1.65712e-19 
265 75 0 1.38941e-19 
275 75 0 8.51895e-20 
285 75 0 1.13645e-06 
295 75 0 1.13459e-06 
305 75 0 1.13331e-06 
315 75 0 1.13026e-06 
320 75 0 1.12898e-06 
0 85 0 1.00609e-08 
5 85 0 1.00525e-08 
15 85 0 1.00492e-08 
25 85 0 1.00325e-08 
35 85 0 1.00503e-08 
45 85 0 1.00525e-08 
55 85 0 1.00118e-08 
65 85 0 1.00325e-08 
75 85 0 1.00503e-08 
85 85 0 1.00118e-08 
95 85 0 3.78774e-08 
105 85 0 1.00503e-08 
115 85 0 2.78909e-08 
125 85 0 3.78774e-08 
135 85 0 4.52185e-07 
145 85 0 2.78909e-08 
155 85 0 9.27522e-08 
165 85 0 4.52185e-07 
175 85 0 5.33054e-06 
185 85 0 9.27522e-08 
195 85 0 8.29485e-07 
205 85 0 5.33054e-06 
215 85 0 4.0002e-06 
225 85 0 8.29485e-07 
235 85 0 1.087e-05 
245 85 0 4.0002e-06 
255 85 0 3.09119e-08 
265 85 0 1.087e-05 
275 85 0 8.40739e-07 
285 85 0 3.09119e-08 
295 85 0 1.01283e-08 
305 85 0 8.40739e-07 
315 85 0 1.19615e-08 
320 85 0 1.01068e-08 
0 95 0 1.00297e-08 
5 95 0 1.0061e-08 
15 95 0 1.00609e-08 
25 95 0 1.00321e-08 
35 95 0 1.00438e-08 
45 95 0 2.78909e-08 
55 95 0 1.0061e-08 
65 95 0 1.00252e-08 
75 95 0 1.00321e-08 
85 95 0 9.27522e-08 
95 95 0 1.00252e-08 
105 95 0 3.83535e-08 
115 95 0 1.00438e-08 
125 95 0 8.29485e-07 
135 95 0 3.83535e-08 
145 95 0 2.04007e-07 
155 95 0 2.60117e-08 
165 95 0 1.087e-05 
175 95 0 2.04007e-07 
185 95 0 2.3013e-06 
195 95 0 1.41756e-07 
205 95 0 8.40739e-07 
215 95 0 2.3013e-06 
225 95 0 8.1039e-06 
235 95 0 1.17619e-06 
245 95 0 1.19615e-08 
255 95 0 8.1039e-06 
265 95 0 9.24526e-08 
275 95 0 1.14996e-05 
285 95 0 9.24526e-08 
295 95 0 1.01351e-08 
305 95 0 3.09831e-07 
315 95 0 1.16511e-08 
320 95 0 1.01283e-08 
0 105 0 1.00492e-08 
5 105 0 1.00553e-08 
15 105 0 1.00297e-08 
25 105 0 1.00353e-08 
35 105 0 1.00618e-08 
45 105 0 1.00438e-08 
55 105 0 2.60117e-08 
65 105 0 1.00553e-08 
75 105 0 1.00167e-08 
85 105 0 2.60117e-08 
95 105 0 1.41756e-07 
105 105 0 1.00167e-08 
115 105 0 3.82692e-08 
125 105 0 1.41756e-07 
135 105 0 1.17619e-06 
145 105 0 3.82692e-08 
155 105 0 3.29819e-07 
165 105 0 1.17619e-06 
175 105 0 1.14996e-05 
185 105 0 3.29819e-07 
195 105 0 3.40347e-06 
205 105 0 1.14996e-05 
215 105 0 3.09831e-07 
225 105 0 3.40347e-06 
235 105 0 6.85881e-06 
245 105 0 3.09831e-07 
255 105 0 1.16511e-08 
265 105 0 6.85881e-06 
275 105 0 4.4761e-08 
285 105 0 4.4761e-08 
295 105 0 1.01068e-08 
305 105 0 1.67573e-06 
315 105 0 1.28028e-08 
320 105 0 1.01351e-08 
0 115 0 1.00609e-08 
5 115 0 1.00525e-08 
15 115 0 1.00492e-08 
25 115 0 1.00325e-08 
35 115 0 1.00503e-08 
45 115 0 1.00353e-08 
55 115 0 1.00618e-08 
65 115 0 2.14437e-08 
75 115 0 1.00525e-08 
85 115 0 1.00618e-08 
95 115 0 2.14437e-08 
105 115 0 6.02241e-08 
115 115 0 1.00118e-08 
125 115 0 2.14437e-08 
135 115 0 6.02241e-08 
145 115 0 5.58576e-07 
155 115 0 3.78774e-08 
165 115 0 6.02241e-08 
175 115 0 5.58576e-07 
185 115 0 9.67491e-06 
195 115 0 4.52185e-07 
205 115 0 5.58576e-07 
215 115 0 9.67491e-06 
225 115 0 1.67573e-06 
235 115 0 5.33054e-06 
245 115 0 9.67491e-06 
255 115 0 1.67573e-06 
265 115 0 1.28028e-08 
275 115 0 4.0002e-06 
285 115 0 3.09119e-08 
295 115 0 1.01283e-08 
305 115 0 8.40739e-07 
315 115 0 1.19615e-08 
320 115 0 1.01068e-08 
0 125 0 1.00297e-08 
5 125 0 1.0061e-08 
15 125 0 1.00609e-08 
25 125 0 1.00321e-08 
35 125 0 1.00438e-08 
45 125 0 1.00118e-08 
55 125 0 1.00325e-08 
65 125 0 1.00503e-08 
75 125 0 2.78909e-08 
85 125 0 3.78774e-08 
95 125 0 1.00503e-08 
105 125 0 2.78909e-08 
115 125 0 9.27522e-08 
125 125 0 4.52185e-07 
135 125 0 2.78909e-08 
145 125 0 9.27522e-08 
155 125 0 8.29485e-07 
165 125 0 5.33054e-06 
175 125 0 9.27522e-08 
185 125 0 8.29485e-07 
195 125 0 1.087e-05 
205 125 0 4.0002e-06 
215 125 0 8.29485e-07 
225 125 0 1.087e-05 
235 125 0 8.40739e-07 
245 125 0 3.09119e-08 
255 125 0 1.087e-05 
265 125 0 8.40739e-07 
275 125 0 1.19615e-08 
285 125 0 9.24526e-08 
295 125 0 1.01351e-08 
305 125 0 3.09831e-07 
315 125 0 1.16511e-08 
320 125 0 1.01283e-08 
0 135 0 1.00492e-08 
5 135 0 1.00553e-08 
15 135 0 1.00297e-08 
25 135 0 1.00353e-08 
35 135 0 1.00618e-08 
45 135 0 1.0061e-08 
55 135 0 1.00252e-08 
65 135 0 1.00321e-08 
75 135 0 1.00438e-08 
85 135 0 1.00252e-08 
95 135 0 3.83535e-08 
105 135 0 1.00438e-08 
115 135 0 2.60117e-08 
125 135 0 3.83535e-08 
135 135 0 2.04007e-07 
145 135 0 2.60117e-08 
155 135 0 1.41756e-07 
165 135 0 2.04007e-07 
175 135 0 2.3013e-06 
185 135 0 1.41756e-07 
195 135 0 1.17619e-06 
205 135 0 2.3013e-06 
215 135 0 8.1039e-06 
225 135 0 1.17619e-06 
235 135 0 1.14996e-05 
245 135 0 8.1039e-06 
255 135 0 9.24526e-08 
265 135 0 1.14996e-05 
275 135 0 3.09831e-07 
285 135 0 4.4761e-08 
295 135 0 1.01068e-08 
305 135 0 1.67573e-06 
315 135 0 1.28028e-08 
320 135 0 1.01351e-08 
0 145 0 1.00102e-08 
5 145 0 1.00036e-08 
15 145 0 1.00159e-08 
25 145 0 1.00062e-08 
35 145 0 1.00058e-08 
45 145 0 2.60117e-08 
55 145 0 1.00553e-08 
65 145 0 1.00167e-08 
75 145 0 1.00353e-08 
85 145 0 1.41756e-07 
95 145 0 1.00167e-08 
105 145 0 3.82692e-08 
115 145 0 1.00618e-08 
125 145 0 1.17619e-06 
135 145 0 3.82692e-08 
145 145 0 3.29819e-07 
155 145 0 2.14437e-08 
165 145 0 1.14996e-05 
175 145 0 3.29819e-07 
185 145 0 3.40347e-06 
195 145 0 6.02241e-08 
205 145 0 3.09831e-07 
215 145 0 3.40347e-06 
225 145 0 6.85881e-06 
235 145 0 5.58576e-07 
245 145 0 1.16511e-08 
255 145 0 6.85881e-06 
265 145 0 4.4761e-08 
275 145 0 9.67491e-06 
285 145 0 1.89003e-07 
295 145 0 1.01414e-08 
305 145 0 3.40264e-06 
315 145 0 1.51202e-08 
320 145 0 1.01955e-08 
0 155 0 1.00169e-08 
5 155 0 1.00143e-08 
15 155 0 1.00001e-08 
25 155 0 1.00002e-08 
35 155 0 1.00014e-08 
45 155 0 1.00618e-08 
55 155 0 2.14437e-08 
65 155 0 1.00036e-08 
75 155 0 1.00017e-08 
85 155 0 2.14437e-08 
95 155 0 6.02241e-08 
105 155 0 1.00017e-08 
115 155 0 3.52709e-07 
125 155 0 6.02241e-08 
135 155 0 5.58576e-07 
145 155 0 3.52709e-07 
155 155 0 1.79173e-06 
165 155 0 5.58576e-07 
175 155 0 9.67491e-06 
185 155 0 1.79173e-06 
195 155 0 1.64369e-05 
205 155 0 9.67491e-06 
215 155 0 1.67573e-06 
225 155 0 1.64369e-05 
235 155 0 1.38546e-05 
245 155 0 1.67573e-06 
255 155 0 1.28028e-08 
265 155 0 1.38546e-05 
275 155 0 1.89003e-07 
285 155 0 4.64599e-07 
295 155 0 1.03327e-08 
305 155 0 4.1529e-06 
315 155 0 2.12424e-08 
320 155 0 1.07168e-08 
0 165 0 1.00086e-08 
5 165 0 1.01049e-08 
15 165 0 1.00068e-08 
25 165 0 1.00624e-08 
35 165 0 1.00682e-08 
45 165 0 1.01049e-08 
55 165 0 1.00936e-08 
65 165 0 1.00624e-08 
75 165 0 1.00682e-08 
85 165 0 1.00936e-08 
95 165 0 1.02065e-08 
105 165 0 1.00682e-08 
115 165 0 1.00917e-08 
125 165 0 1.02065e-08 
135 165 0 0.000209531 
145 165 0 1.00917e-08 
155 165 0 1.0387e-08 
165 165 0 0.000136 
175 165 0 0.000136 
185 165 0 0.000136 
195 165 0 0.000136 
205 165 0 8.5813e-05 
215 165 0 6.98661e-06 
225 165 0 0.000160421 
235 165 0 0.000115191 
245 165 0 6.98661e-06 
255 165 0 8.29331e-07 
265 165 0 0.000115191 
275 165 0 4.6378e-06 
285 165 0 8.29331e-07 
295 165 0 1.41763e-08 
305 165 0 4.6378e-06 
315 165 0 8.56679e-08 
320 165 0 1.68021e-08 
0 175 0 1.00065e-08 
5 175 0 1.00914e-08 
15 175 0 1.00086e-08 
25 175 0 1.00421e-08 
35 175 0 1.00752e-08 
45 175 0 1.00917e-08 
55 175 0 1.00914e-08 
65 175 0 1.00773e-08 
75 175 0 1.00421e-08 
85 175 0 1.0387e-08 
95 175 0 1.00773e-08 
105 175 0 1.01134e-08 
115 175 0 1.00752e-08 
125 175 0 0.000160421 
135 175 0 1.01134e-08 
145 175 0 2.17781e-05 
155 175 0 1.01137e-08 
165 175 0 0.000136 
175 175 0 0.000136 
185 175 0 0.000136 
195 175 0 0.000136 
205 175 0 4.6378e-06 
215 175 0 0.00256368 
225 175 0 4.26983e-06 
235 175 0 4.30538e-05 
245 175 0 8.56679e-08 
255 175 0 4.26983e-06 
265 175 0 3.05718e-06 
275 175 0 6.65332e-05 
285 175 0 3.05718e-06 
295 175 0 1.96178e-08 
305 175 0 3.10696e-06 
315 175 0 5.8448e-08 
320 175 0 1.41763e-08 
0 185 0 1.00068e-08 
5 185 0 1.00888e-08 
15 185 0 1.00065e-08 
25 185 0 1.00585e-08 
35 185 0 1.00716e-08 
45 185 0 1.00752e-08 
55 185 0 1.01137e-08 
65 185 0 1.00888e-08 
75 185 0 1.00791e-08 
85 185 0 1.01137e-08 
95 185 0 1.04136e-08 
105 185 0 1.00791e-08 
115 185 0 1.01161e-08 
125 185 0 1.04136e-08 
135 185 0 4.30538e-05 
145 185 0 1.01161e-08 
155 185 0 6.42503e-05 
165 185 0 0.000136 
175 185 0 0.000136 
185 185 0 0.000136 
195 185 0 0.000136 
205 185 0 6.65332e-05 
215 185 0 3.10696e-06 
225 185 0 0.000186571 
235 185 0 5.44727e-06 
245 185 0 3.10696e-06 
255 185 0 5.8448e-08 
265 185 0 5.44727e-06 
275 185 0 1.75662e-06 
285 185 0 1.75662e-06 
295 185 0 1.68021e-08 
305 185 0 7.23854e-06 
315 185 0 8.98821e-08 
320 185 0 1.96178e-08 
0 195 0 1.00086e-08 
5 195 0 1.01049e-08 
15 195 0 1.00068e-08 
25 195 0 1.00624e-08 
35 195 0 1.00682e-08 
45 195 0 1.00585e-08 
55 195 0 1.00716e-08 
65 195 0 1.00871e-08 
75 195 0 1.01049e-08 
85 195 0 1.00716e-08 
95 195 0 1.00871e-08 
105 195 0 1.0502e-08 
115 195 0 1.00936e-08 
125 195 0 1.00871e-08 
135 195 0 1.0502e-08 
145 195 0 0.00013235 
155 195 0 1.02065e-08 
165 195 0 0.000136 
175 195 0 0.000136 
185 195 0 0.000136 
195 195 0 0.000136 
205 195 0 0.00013235 
215 195 0 0.000239506 
225 195 0 7.23854e-06 
235 195 0 8.5813e-05 
245 195 0 0.000239506 
255 195 0 7.23854e-06 
265 195 0 8.98821e-08 
275 195 0 6.98661e-06 
285 195 0 8.29331e-07 
295 195 0 1.41763e-08 
305 195 0 4.6378e-06 
315 195 0 8.56679e-08 
320 195 0 1.68021e-08 
0 205 0 1.00065e-08 
5 205 0 1.00914e-08 
15 205 0 1.00086e-08 
25 205 0 1.00421e-08 
35 205 0 1.00752e-08 
45 205 0 1.00936e-08 
55 205 0 1.00624e-08 
65 205 0 1.00682e-08 
75 205 0 1.00917e-08 
85 205 0 1.02065e-08 
95 205 0 1.00682e-08 
105 205 0 1.00917e-08 
115 205 0 1.0387e-08 
125 205 0 0.000209531 
135 205 0 1.00917e-08 
145 205 0 1.0387e-08 
155 205 0 0.000160421 
165 205 0 0.000136 
175 205 0 0.000136 
185 205 0 0.000136 
195 205 0 0.000136 
205 205 0 6.98661e-06 
215 205 0 0.000160421 
225 205 0 0.000115191 
235 205 0 4.6378e-06 
245 205 0 8.29331e-07 
255 205 0 0.000115191 
265 205 0 4.6378e-06 
275 205 0 8.56679e-08 
285 205 0 3.05718e-06 
295 205 0 1.96178e-08 
305 205 0 3.10696e-06 
315 205 0 5.8448e-08 
320 205 0 1.41763e-08 
0 215 0 1.00068e-08 
5 215 0 1.00888e-08 
15 215 0 1.00065e-08 
25 215 0 1.00585e-08 
35 215 0 1.00716e-08 
45 215 0 1.00914e-08 
55 215 0 1.00773e-08 
65 215 0 1.00421e-08 
75 215 0 1.00752e-08 
85 215 0 1.00773e-08 
95 215 0 1.01134e-08 
105 215 0 1.00752e-08 
115 215 0 1.01137e-08 
125 215 0 1.01134e-08 
135 215 0 2.17781e-05 
145 215 0 1.01137e-08 
155 215 0 1.04136e-08 
165 215 0 0.000136 
175 215 0 0.000136 
185 215 0 0.000136 
195 215 0 0.000136 
205 215 0 0.00256368 
215 215 0 4.26983e-06 
225 215 0 4.30538e-05 
235 215 0 6.65332e-05 
245 215 0 4.26983e-06 
255 215 0 3.05718e-06 
265 215 0 6.65332e-05 
275 215 0 3.10696e-06 
285 215 0 1.75662e-06 
295 215 0 1.68021e-08 
305 215 0 7.23854e-06 
315 215 0 8.98821e-08 
320 215 0 1.96178e-08 
0 225 0 1.00064e-08 
5 225 0 1.00503e-08 
15 225 0 1.00063e-08 
25 225 0 1.00318e-08 
35 225 0 1.0037e-08 
45 225 0 1.01137e-08 
55 225 0 1.00888e-08 
65 225 0 1.00791e-08 
75 225 0 1.00585e-08 
85 225 0 1.04136e-08 
95 225 0 1.00791e-08 
105 225 0 1.01161e-08 
115 225 0 1.00716e-08 
125 225 0 4.30538e-05 
135 225 0 1.01161e-08 
145 225 0 6.42503e-05 
155 225 0 1.00871e-08 
165 225 0 0.000136 
175 225 0 0.000136 
185 225 0 0.000136 
195 225 0 0.000136 
205 225 0 3.10696e-06 
215 225 0 0.000186571 
225 225 0 5.44727e-06 
235 225 0 0.00013235 
245 225 0 5.8448e-08 
255 225 0 5.44727e-06 
265 225 0 1.75662e-06 
275 225 0 0.000239506 
285 225 0 5.04107e-06 
295 225 0 1.71282e-08 
305 225 0 4.29584e-05 
315 225 0 3.02979e-07 
320 225 0 2.70699e-08 
0 235 0 1.00051e-08 
5 235 0 1.00346e-08 
15 235 0 1.00004e-08 
25 235 0 1.0005e-08 
35 235 0 1.0031e-08 
45 235 0 1.00716e-08 
55 235 0 1.00871e-08 
65 235 0 1.00503e-08 
75 235 0 1.01856e-08 
85 235 0 1.00871e-08 
95 235 0 1.0502e-08 
105 235 0 1.01856e-08 
115 235 0 1.02733e-08 
125 235 0 1.0502e-08 
135 235 0 0.00013235 
145 235 0 1.02733e-08 
155 235 0 0.000787592 
165 235 0 0.000136 
175 235 0 0.000136 
185 235 0 0.000136 
195 235 0 0.000136 
205 235 0 0.000239506 
215 235 0 7.23854e-06 
225 235 0 0.000416795 
235 235 0 7.50655e-05 
245 235 0 7.23854e-06 
255 235 0 8.98821e-08 
265 235 0 7.50655e-05 
275 235 0 5.04107e-06 
285 235 0 1.36654e-05 
295 235 0 3.97464e-08 
305 235 0 5.80381e-05 
315 235 0 3.34695e-07 
320 235 0 2.24423e-08 
0 245 0 1.00232e-08 
5 245 0 1.01071e-08 
15 245 0 1.00215e-08 
25 245 0 1.0056e-08 
35 245 0 1.01301e-08 
45 245 0 1.00936e-08 
55 245 0 1.01007e-08 
65 245 0 1.01137e-08 
75 245 0 1.00773e-08 
85 245 0 1.00723e-08 
95 245 0 1.24934e-08 
105 245 0 1.01305e-08 
115 245 0 1.08438e-08 
125 245 0 1.24934e-08 
135 245 0 2.23615e-08 
145 245 0 1.08438e-08 
155 245 0 1.03849e-08 
165 245 0 2.23615e-08 
175 245 0 4.27237e-06 
185 245 0 1.03849e-08 
195 245 0 6.26555e-07 
205 245 0 4.27237e-06 
215 245 0 6.59144e-06 
225 245 0 6.26555e-07 
235 245 0 1.56376e-05 
245 245 0 6.59144e-06 
255 245 0 3.14574e-07 
265 245 0 1.56376e-05 
275 245 0 2.34455e-06 
285 245 0 1.13708e-06 
295 245 0 1.13704e-06 
305 245 0 1.13691e-06 
315 245 0 1.13711e-06 
320 245 0 1.13706e-06 
0 255 0 1.00161e-08 
5 255 0 1.01202e-08 
15 255 0 1.00232e-08 
25 255 0 1.00506e-08 
35 255 0 1.01589e-08 
45 255 0 1.00873e-08 
55 255 0 1.01257e-08 
65 255 0 1.0033e-08 
75 255 0 1.00275e-08 
85 255 0 1.03849e-08 
95 255 0 1.01081e-08 
105 255 0 1.05895e-08 
115 255 0 1.01587e-08 
125 255 0 6.26555e-07 
135 255 0 1.05895e-08 
145 255 0 0.000345345 
155 255 0 1.07826e-08 
165 255 0 1.56376e-05 
175 255 0 0.000345345 
185 255 0 4.03918e-05 
195 255 0 1.62714e-08 
205 255 0 2.34455e-06 
215 255 0 4.03918e-05 
225 255 0 7.84509e-06 
235 255 0 1.33457e-07 
245 255 0 3.64492e-08 
255 255 0 7.84509e-06 
265 255 0 4.90188e-07 
275 255 0 5.95875e-06 
285 255 0 1.13684e-06 
295 255 0 1.13716e-06 
305 255 0 1.13693e-06 
315 255 0 1.13662e-06 
320 255 0 1.13717e-06 
0 265 0 1.00215e-08 
5 265 0 1.0121e-08 
15 265 0 1.00161e-08 
25 265 0 1.00502e-08 
35 265 0 1.00881e-08 
45 265 0 1.00313e-08 
55 265 0 1.00248e-08 
65 265 0 1.01007e-08 
75 265 0 1.01137e-08 
85 265 0 1.07826e-08 
95 265 0 1.62714e-08 
105 265 0 1.01047e-08 
115 265 0 1.19666e-08 
125 265 0 1.62714e-08 
135 265 0 1.33457e-07 
145 265 0 1.19666e-08 
155 265 0 1.69064e-08 
165 265 0 1.33457e-07 
175 265 0 5.95875e-06 
185 265 0 1.69064e-08 
195 265 0 1.50413e-05 
205 265 0 5.95875e-06 
215 265 0 2.54863e-06 
225 265 0 1.50413e-05 
235 265 0 6.83587e-06 
245 265 0 2.54863e-06 
255 265 0 2.85331e-08 
265 265 0 6.83587e-06 
275 265 0 3.76527e-07 
285 265 0 1.13704e-06 
295 265 0 1.13691e-06 
305 265 0 1.13708e-06 
315 265 0 1.13705e-06 
320 265 0 1.13693e-06 
0 275 0 1.00232e-08 
5 275 0 1.01071e-08 
15 275 0 1.00215e-08 
25 275 0 1.0056e-08 
35 275 0 1.01301e-08 
45 275 0 1.00936e-08 
55 275 0 1.00853e-08 
65 275 0 1.00871e-08 
75 275 0 1.01123e-08 
85 275 0 1.00877e-08 
95 275 0 1.02081e-08 
105 275 0 1.05824e-08 
115 275 0 1.00723e-08 
125 275 0 1.02081e-08 
135 275 0 1.05824e-08 
145 275 0 2.34301e-06 
155 275 0 1.24934e-08 
165 275 0 1.05824e-08 
175 275 0 2.34301e-06 
185 275 0 3.86097e-05 
195 275 0 2.23615e-08 
205 275 0 2.34301e-06 
215 275 0 3.86097e-05 
225 275 0 2.47245e-06 
235 275 0 4.27237e-06 
245 275 0 3.86097e-05 
255 275 0 2.47245e-06 
265 275 0 4.4942e-08 
275 275 0 6.59144e-06 
285 275 0 1.13715e-06 
295 275 0 1.13703e-06 
305 275 0 1.13671e-06 
315 275 0 1.13717e-06 
320 275 0 1.13693e-06 
0 285 0 1.00161e-08 
5 285 0 1.01202e-08 
15 285 0 1.00232e-08 
25 285 0 1.00506e-08 
35 285 0 1.01589e-08 
45 285 0 1.00955e-08 
55 285 0 1.00535e-08 
65 285 0 1.00248e-08 
75 285 0 1.00275e-08 
85 285 0 1.24934e-08 
95 285 0 1.01305e-08 
105 285 0 1.08438e-08 
115 285 0 1.03849e-08 
125 285 0 2.23615e-08 
135 285 0 1.08438e-08 
145 285 0 1.03849e-08 
155 285 0 6.26555e-07 
165 285 0 4.27237e-06 
175 285 0 1.03849e-08 
185 285 0 6.26555e-07 
195 285 0 1.56376e-05 
205 285 0 6.59144e-06 
215 285 0 6.26555e-07 
225 285 0 1.56376e-05 
235 285 0 2.34455e-06 
245 285 0 3.14574e-07 
255 285 0 1.56376e-05 
265 285 0 2.34455e-06 
275 285 0 3.64492e-08 
285 285 0 1.13662e-06 
295 285 0 1.13708e-06 
305 285 0 1.13704e-06 
315 285 0 1.13691e-06 
320 285 0 1.13711e-06 
0 295 0 1.00215e-08 
5 295 0 1.0121e-08 
15 295 0 1.00161e-08 
25 295 0 1.00502e-08 
35 295 0 1.00881e-08 
45 295 0 1.00313e-08 
55 295 0 1.00936e-08 
65 295 0 1.01007e-08 
75 295 0 1.01137e-08 
85 295 0 1.01081e-08 
95 295 0 1.05895e-08 
105 295 0 1.01587e-08 
115 295 0 1.07826e-08 
125 295 0 1.05895e-08 
135 295 0 0.000345345 
145 295 0 1.07826e-08 
155 295 0 1.62714e-08 
165 295 0 0.000345345 
175 295 0 4.03918e-05 
185 295 0 1.62714e-08 
195 295 0 1.33457e-07 
205 295 0 4.03918e-05 
215 295 0 7.84509e-06 
225 295 0 1.33457e-07 
235 295 0 5.95875e-06 
245 295 0 7.84509e-06 
255 295 0 4.90188e-07 
265 295 0 5.95875e-06 
275 295 0 2.54863e-06 
285 295 0 1.13706e-06 
295 295 0 1.13684e-06 
305 295 0 1.13716e-06 
315 295 0 1.13693e-06 
320 295 0 1.13662e-06 
0 305 0 1.00103e-08 
5 305 0 1.00852e-08 
15 305 0 1.00071e-08 
25 305 0 1.00475e-08 
35 305 0 1.00875e-08 
45 305 0 1.00773e-08 
55 305 0 1.00873e-08 
65 305 0 1.01257e-08 
75 305 0 1.0033e-08 
85 305 0 1.62714e-08 
95 305 0 1.01047e-08 
105 305 0 1.19666e-08 
115 305 0 1.00877e-08 
125 305 0 1.33457e-07 
135 305 0 1.19666e-08 
145 305 0 1.69064e-08 
155 305 0 1.02081e-08 
165 305 0 5.95875e-06 
175 305 0 1.69064e-08 
185 305 0 1.50413e-05 
195 305 0 1.05824e-08 
205 305 0 2.54863e-06 
215 305 0 1.50413e-05 
225 305 0 6.83587e-06 
235 305 0 2.34301e-06 
245 305 0 2.85331e-08 
255 305 0 6.83587e-06 
265 305 0 3.76527e-07 
275 305 0 3.86097e-05 
285 305 0 1.13717e-06 
295 305 0 1.137e-06 
305 305 0 1.13685e-06 
315 305 0 1.13708e-06 
320 305 0 1.13705e-06 
0 315 0 1.00059e-08 
5 315 0 1.00826e-08 
15 315 0 1.00001e-08 
25 315 0 1.00038e-08 
35 315 0 1.00678e-08 
45 315 0 1.00275e-08 
55 315 0 1.00313e-08 
65 315 0 1.00248e-08 
75 315 0 1.01703e-08 
85 315 0 1.02081e-08 
95 315 0 1.05824e-08 
105 315 0 1.00188e-08 
115 315 0 1.44568e-08 
125 315 0 1.05824e-08 
135 315 0 2.34301e-06 
145 315 0 1.44568e-08 
155 315 0 3.01749e-08 
165 315 0 2.34301e-06 
175 315 0 3.86097e-05 
185 315 0 3.01749e-08 
195 315 0 2.82038e-05 
205 315 0 3.86097e-05 
215 315 0 2.47245e-06 
225 315 0 2.82038e-05 
235 315 0 1.17561e-05 
245 315 0 2.47245e-06 
255 315 0 4.4942e-08 
265 315 0 1.17561e-05 
275 315 0 6.05896e-07 
285 315 0 1.13693e-06 
295 315 0 1.13715e-06 
305 315 0 1.13703e-06 
315 315 0 1.13671e-06 
320 315 0 1.13717e-06 
0 320 0 1.00002e-08 
5 320 0 1.00306e-08 
15 320 0 1.00003e-08 
25 320 0 1.00057e-08 
35 320 0 1.0034e-08 
45 320 0 1.08457e-08 
55 320 0 1.00936e-08 
65 320 0 1.00853e-08 
75 320 0 1.00871e-08 
85 320 0 1.00876e-08 
95 320 0 1.26406e-08 
105 320 0 1.05612e-08 
115 320 0 1.03175e-08 
125 320 0 1.26406e-08 
135 320 0 1.05612e-08 
145 320 0 3.74412e-06 
155 320 0 1.09334e-08 
165 320 0 1.05612e-08 
175 320 0 3.74412e-06 
185 320 0 0.000121777 
195 320 0 0.00158674 
205 320 0 3.74412e-06 
215 320 0 0.000121777 
225 320 0 3.09158e-06 
235 320 0 0.000198207 
245 320 0 0.000121777 
255 320 0 3.09158e-06 
265 320 0 6.31886e-08 
275 320 0 5.97834e-05 
285 320 0 1.13693e-06 
295 320 0 1.13662e-06 
305 320 0 1.13711e-06 
315 320 0 1.13707e-06 
320 320 0 1.13694e-06 
0 0 2 1.35345e-30 
5 0 2 0.000136 
15 0 2 25 
25 0 2 1.17165e-30 
35 0 2 1.1e-30 
45 0 2 9.99997e-09 
55 0 2 9.99998e-09 
65 0 2 1e-08 
75 0 2 1e-08 
85 0 2 1.14174e-30 
95 0 2 1.10021e-30 
105 0 2 1.50161e-30 
115 0 2 1.52133e-30 
125 0 2 1.12966e-30 
135 0 2 2.46224e-30 
145 0 2 1.27745e-28 
155 0 2 4.41019e-30 
165 0 2 1e-08 
175 0 2 1e-08 
185 0 2 1.02312e-08 
195 0 2 1.34469e-08 
205 0 2 1.30821e-29 
215 0 2 7.9541e-29 
225 0 2 1.20649e-27 
235 0 2 7.9947e-26 
245 0 2 9.92944e-20 
255 0 2 7.80317e-20 
265 0 2 8.50108e-20 
275 0 2 5.12868e-20 
285 0 2 1.13421e-06 
295 0 2 1.13209e-06 
305 0 2 1.1305e-06 
315 0 2 1.13692e-06 
320 0 2 1.13684e-06 
0 5 2 1.10227e-30 
5 5 2 3 
15 5 2 3 
25 5 2 3 
35 5 2 3 
45 5 2 3 
55 5 2 3 
65 5 2 3 
75 5 2 3 
85 5 2 3 
95 5 2 3 
105 5 2 3 
115 5 2 3 
125 5 2 3 
135 5 2 3 
145 5 2 3 
155 5 2 3 
165 5 2 2 
175 5 2 1 
185 5 2 1 
195 5 2 1 
205 5 2 1 
215 5 2 1 
225 5 2 1 
235 5 2 1 
245 5 2 1 
255 5 2 1 
265 5 2 1 
275 5 2 1 
285 5 2 1 
295 5 2 1 
305 5 2 1 
315 5 2 1 
320 5 2 1.13659e-06 
0 15 2 1.13563e-30 
5 15 2 1 
15 15 2 1 
25 15 2 1 
35 15 2 1 
45 15 2 1 
55 15 2 1 
65 15 2 1 
75 15 2 1 
85 15 2 1 
95 15 2 1 
105 15 2 1 
115 15 2 1 
125 15 2 1 
135 15 2 1 
145 15 2 1 
155 15 2 1 
165 15 2 1 
175 15 2 1 
185 15 2 1 
195 15 2 1 
205 15 2 1 
215 15 2 1 
225 15 2 1 
235 15 2 1 
245 15 2 1 
255 15 2 1 
265 15 2 1 
275 15 2 1 
285 15 2 1 
295 15 2 1 
305 15 2 1 
315 15 2 1 
320 15 2 1.13631e-06 
0 25 2 5.69454e-28 
5 25 2 1 
15 25 2 1 
25 25 2 1 
35 25 2 1 
45 25 2 1 
55 25 2 1 
65 25 2 1 
75 25 2 1 
85 25 2 1 
95 25 2 1 
105 25 2 1 
115 25 2 1 
125 25 2 1 
135 25 2 1 
145 25 2 1 
155 25 2 1 
165 25 2 1 
175 25 2 1 
185 25 2 1 
195 25 2 1 
205 25 2 1 
215 25 2 1 
225 25 2 1 
235 25 2 1 
245 25 2 1 
255 25 2 1 
265 25 2 1 
275 25 2 1 
285 25 2 1 
295 25 2 1 
305 25 2 1 
315 25 2 1 
320 25 2 1.13616e-06 
0 35 2 1.10494e-30 
5 35 2 1 
15 35 2 1 
25 35 2 1 
35 35 2 1 
45 35 2 1 
55 35 2 1 
65 35 2 1 
75 35 2 1 
85 35 2 1 
95 35 2 1 
105 35 2 1 
115 35 2 1 
125 35 2 1 
135 35 2 1 
145 35 2 1 
155 35 2 1 
165 35 2 1 
175 35 2 1 
185 35 2 1 
195 35 2 1 
205 35 2 1 
215 35 2 1 
225 35 2 1 
235 35 2 1 
245 35 2 1 
255 35 2 1 
265 35 2 1 
275 35 2 1 
285 35 2 1 
295 35 2 1 
305 35 2 1 
315 35 2 1 
320 35 2 1.137e-06 
0 45 2 2.47303e-30 
5 45 2 1 
15 45 2 1 
25 45 2 1 
35 45 2 1 
45 45 2 1 
55 45 2 1 
65 45 2 1 
75 45 2 1 
85 45 2 1 
95 45 2 1 
105 45 2 1 
115 45 2 1 
125 45 2 1 
135 45 2 1 
145 45 2 1 
155 45 2 1 
165 45 2 1 
175 45 2 1 
185 45 2 1 
195 45 2 1 
205 45 2 1 
215 45 2 1 
225 45 2 1 
235 45 2 1 
245 45 2 1 
255 45 2 1 
265 45 2 1 
275 45 2 1 
285 45 2 1 
295 45 2 1 
305 45 2 1 
315 45 2 1 
320 45 2 1.13696e-06 
0 55 2 1.11157e-30 
5 55 2 1 
15 55 2 1 
25 55 2 1 
35 55 2 1 
45 55 2 1 
55 55 2 1 
65 55 2 1 
75 55 2 1 
85 55 2 1 
95 55 2 1 
105 55 2 1 
115 55 2 1 
125 55 2 1 
135 55 2 1 
145 55 2 1 
155 55 2 1 
165 55 2 1 
175 55 2 1 
185 55 2 1 
195 55 2 1 
205 55 2 1 
215 55 2 1 
225 55 2 1 
235 55 2 1 
245 55 2 1 
255 55 2 1 
265 55 2 1 
275 55 2 1 
285 55 2 1 
295 55 2 1 
305 55 2 1 
315 55 2 1 
320 55 2 1.13696e-06 
0 65 2 1.2488e-30 
5 65 2 1 
15 65 2 1 
25 65 2 1 
35 65 2 1 
45 65 2 1 
55 65 2 1 
65 65 2 1 
75 65 2 1 
85 65 2 1 
95 65 2 1 
105 65 2 1 
115 65 2 1 
125 65 2 1 
135 65 2 1 
145 65 2 1 
155 65 2 1 
165 65 2 1 
175 65 2 1 
185 65 2 1 
195 65 2 1 
205 65 2 1 
215 65 2 1 
225 65 2 1 
235 65 2 1 
245 65 2 1 
255 65 2 1 
265 65 2 1 
275 65 2 1 
285 65 2 1 
295 65 2 1 
305 65 2 1 
315 65 2 1 
320 65 2 1.13701e-06 
0 75 2 6.86049e-27 
5 75 2 1 
15 75 2 1 
25 75 2 1 
35 75 2 1 
45 75 2 1 
55 75 2 1 
65 75 2 1 
75 75 2 1 
85 75 2 1 
95 75 2 1 
105 75 2 1 
115 75 2 1 
125 75 2 1 
135 75 2 1 
145 75 2 1 
155 75 2 1 
165 75 2 1 
175 75 2 1 
185 75 2 1 
195 75 2 1 
205 75 2 1 
215 75 2 1 
225 75 2 1 
235 75 2 1 
245 75 2 1 
255 75 2 1 
265 75 2 1 
275 75 2 1 
285 75 2 1 
295 75 2 1 
305 75 2 1 
315 75 2 1 
320 75 2 1.13636e-06 
0 85 2 1.00001e-08 
5 85 2 1 
15 85 2 1 
25 85 2 1 
35 85 2 1 
45 85 2 1 
55 85 2 1 
65 85 2 1 
75 85 2 1 
85 85 2 1 
95 85 2 1 
105 85 2 1 
115 85 2 1 
125 85 2 1 
135 85 2 1 
145 85 2 1 
155 85 2 1 
165 85 2 1 
175 85 2 1 
185 85 2 1 
195 85 2 1 
205 85 2 1 
215 85 2 1 
225 85 2 1 
235 85 2 1 
245 85 2 1 
255 85 2 1 
265 85 2 1 
275 85 2 1 
285 85 2 1 
295 85 2 1 
305 85 2 1 
315 85 2 1 
320 85 2 1.06828e-08 
0 95 2 1.00001e-08 
5 95 2 1 
15 95 2 1 
25 95 2 1 
35 95 2 1 
45 95 2 1 
55 95 2 1 
65 95 2 1 
75 95 2 1 
85 95 2 1 
95 95 2 1 
105 95 2 1 
115 95 2 1 
125 95 2 1 
135 95 2 1 
145 95 2 1 
155 95 2 1 
165 95 2 1 
175 95 2 1 
185 95 2 1 
195 95 2 1 
205 95 2 1 
215 95 2 1 
225 95 2 1 
235 95 2 1 
245 95 2 1 
255 95 2 1 
265 95 2 1 
275 95 2 1 